
     Program PWSCF v.7.5 starts on 22May2026 at  6:18:46 

     This program is part of the open-source Quantum ESPRESSO suite
     for quantum simulation of materials; please cite
         "P. Giannozzi et al., J. Phys.:Condens. Matter 21 395502 (2009);
         "P. Giannozzi et al., J. Phys.:Condens. Matter 29 465901 (2017);
         "P. Giannozzi et al., J. Chem. Phys. 152 154105 (2020);
          URL http://www.quantum-espresso.org", 
     in publications or presentations arising from this work. More details at
     http://www.quantum-espresso.org/quote

     Serial multi-threaded version, running on    1 processor cores
     31112 MiB available memory on the printing compute node when the environment starts
 
     Reading input from mg2ni_NbFe.in
Warning: card &CELL ignored
Warning: card &FCP ignored
Warning: card &RISM ignored

     Current dimensions of program PWSCF are:
     Max number of different atomic species (ntypx) = 10
     Max number of k-points (npk) =  40000
     Max angular momentum in pseudopotentials (lmaxx) =  4
     file Nb.pbe-spn-kjpaw_psl.0.3.0.UPF: wavefunction(s)  4S 4P renormalized
     file Mg.pbe-n-kjpaw_psl.0.3.0.UPF: wavefunction(s)  3S renormalized
     file Fe.pbe-spn-kjpaw_psl.0.2.1.UPF: wavefunction(s)  3D renormalized
     Message from routine setup:
     using ibrav=0 with symmetry is DISCOURAGED, use correct ibrav instead
 
 
     G-vector sticks info
     --------------------
     sticks:   dense  smooth     PW     G-vecs:    dense   smooth      PW
     Sum        3205    1597    439               370373   130803   19151
 
     Using Slab Decomposition
 


     bravais-lattice index     =            0
     lattice parameter (alat)  =       9.8218  a.u.
     unit-cell volume          =    2084.3061 (a.u.)^3
     number of atoms/cell      =           18
     number of atomic types    =            4
     number of electrons       =       141.00
     number of Kohn-Sham states=           85
     kinetic-energy cutoff     =      60.0000  Ry
     charge density cutoff     =     480.0000  Ry
     scf convergence threshold =      1.2E-09
     mixing beta               =       0.4000
     number of iterations used =            8  plain     mixing
     Exchange-correlation=  SLA  PW   PBX  PBC
                           (   1   4   3   4   0   0   0)

     GPU acceleration is ACTIVE.  1 visible GPUs per MPI rank

     Hubbard projectors: ortho-atomic
     Hubbard parameters of DFT+U (Dudarev formulation) in eV:
     U(Fe-3d) =  4.0000
     U(Ni-3d) =  9.0000

     Internal variables: lda_plus_u = T, lda_plus_u_kind = 0

     Internal variables: orbital_resolved = F, hub_pot_fix = F, apply_U =  F

     celldm(1)=   9.821759  celldm(2)=   0.000000  celldm(3)=   0.000000
     celldm(4)=   0.000000  celldm(5)=   0.000000  celldm(6)=   0.000000

     crystal axes: (cart. coord. in units of alat)
               a(1) = (   1.000000   0.000000   0.000000 )  
               a(2) = (  -0.500000   0.866025   0.000000 )  
               a(3) = (   0.000000   0.000000   2.540171 )  

     reciprocal axes: (cart. coord. in units 2 pi/alat)
               b(1) = (  1.000000  0.577350 -0.000000 )  
               b(2) = (  0.000000  1.154701  0.000000 )  
               b(3) = (  0.000000 -0.000000  0.393674 )  


     PseudoPot. # 1 for Nb read from file:
     ../pseudo/Nb.pbe-spn-kjpaw_psl.0.3.0.UPF
     MD5 check sum: 411d72ad547312f8017e2943ceca08cc
     Pseudo is Projector augmented-wave + core cor, Zval = 13.0
     Generated using "atomic" code by A. Dal Corso  v.5.0.99 svn rev. 10869
     Shape of augmentation charge: PSQ
     Using radial grid of 1227 points,  6 beta functions with: 
                l(1) =   0
                l(2) =   0
                l(3) =   1
                l(4) =   1
                l(5) =   2
                l(6) =   2
     Q(r) pseudized with 0 coefficients 


     PseudoPot. # 2 for Mg read from file:
     ../pseudo/Mg.pbe-n-kjpaw_psl.0.3.0.UPF
     MD5 check sum: 24ecedc7f3e3cbe212e682f4413594e4
     Pseudo is Projector augmented-wave + core cor, Zval =  2.0
     Generated using "atomic" code by A. Dal Corso  v.5.0.99 svn rev. 10869
     Shape of augmentation charge: PSQ
     Using radial grid of 1129 points,  4 beta functions with: 
                l(1) =   0
                l(2) =   0
                l(3) =   1
                l(4) =   1
     Q(r) pseudized with 0 coefficients 


     PseudoPot. # 3 for Fe read from file:
     ../pseudo/Fe.pbe-spn-kjpaw_psl.0.2.1.UPF
     MD5 check sum: e86618425769142926afa95317d90200
     Pseudo is Projector augmented-wave + core cor, Zval = 16.0
     Generated using "atomic" code by A. Dal Corso  v.5.0.99 svn rev. 10869
     Shape of augmentation charge: PSQ
     Using radial grid of 1191 points,  6 beta functions with: 
                l(1) =   0
                l(2) =   0
                l(3) =   1
                l(4) =   1
                l(5) =   2
                l(6) =   2
     Q(r) pseudized with 0 coefficients 


     PseudoPot. # 4 for Ni read from file:
     ../pseudo/ni_pbe_v1.4.uspp.F.UPF
     MD5 check sum: 1ee80287db30b12d2bc1f57a5b5d6409
     Pseudo is Ultrasoft + core correction, Zval = 18.0
     Generated by new atomic code, or converted to UPF format
     Using radial grid of  865 points,  6 beta functions with: 
                l(1) =   0
                l(2) =   0
                l(3) =   1
                l(4) =   1
                l(5) =   2
                l(6) =   2
     Q(r) pseudized with 10 coefficients,  rinner =    0.980   0.980   0.980
                                                       0.980   0.980

     atomic species   valence    mass     pseudopotential
     Nb               13.00    92.90637     Nb( 1.00)
     Mg                2.00    24.30500     Mg( 1.00)
     Fe               16.00    55.84500     Fe( 1.00)
     Ni               18.00    58.69340     Ni( 1.00)

     Starting magnetic structure 
     atomic species   magnetization
     Nb              0.000
     Mg              0.000
     Fe              0.125
     Ni              0.000

      2 Sym. Ops. (no inversion) found ( 1 have fractional translation)



   Cartesian axes

     site n.     atom                  positions (alat units)
         1        Nb     tau(   1) = (  -0.2534639   0.7236877   2.1168096  )
         2        Mg     tau(   2) = (   0.0000000   0.2846753   1.2700857  )
         3        Mg     tau(   3) = (   0.7534639   0.1423377   2.1168096  )
         4        Mg     tau(   4) = (   0.5000000   0.5813501   1.2700857  )
         5        Mg     tau(   5) = (   0.2534639   0.7236877   0.4233619  )
         6        Mg     tau(   6) = (   0.2465361   0.1423377   0.4233619  )
         7        Mg     tau(   7) = (   0.2500000   0.4330127   1.8222430  )
         8        Mg     tau(   8) = (   0.5000000   0.0000000   1.5646523  )
         9        Mg     tau(   9) = (   0.2500000   0.4330127   2.4113762  )
        10        Mg     tau(  10) = (   0.5000000   0.0000000   0.9755192  )
        11        Mg     tau(  11) = (   0.7500000   0.4330127   0.7179285  )
        12        Mg     tau(  12) = (   0.7500000   0.4330127   0.1287953  )
        13        Fe     tau(  13) = (   0.2500000   0.4330127   0.8467238  )
        14        Ni     tau(  14) = (   0.5000000   0.0000000   0.0000000  )
        15        Ni     tau(  15) = (   0.7500000   0.4330127   1.6934477  )
        16        Ni     tau(  16) = (   0.0000000   0.0000000   0.8467238  )
        17        Ni     tau(  17) = (   0.0000000   0.0000000   0.0000000  )
        18        Ni     tau(  18) = (   0.0000000   0.0000000   1.6934477  )

     --------------------------------------------
     DFT-D3 Dispersion Correction (3-body terms):
     --------------------------------------------
       Reference C6 values for interpolation: 

         atom   Coordination number   C6
         Mg         0.000          1366.75
         Mg         0.963           902.54
         Mg         1.950           351.12
         Fe         0.000           982.67
         Fe         1.648           409.99
         Fe         9.138           219.01
         Ni         0.000          1149.49
         Ni         1.794           356.66
         Ni         6.546           257.56
         Ni         6.292           283.75
         Nb         0.000          2950.50
         Nb         1.954          1161.16
         Nb         2.922           857.79

       Values used:

         atom   Coordination number  R0_AB[au]  C6      C8
         Nb        11.463            3.647    857.79 111659.18
         Mg        10.231            3.292    351.12  31436.69
         Mg        10.343            3.292    351.12  31436.69
         Mg        10.232            3.292    351.12  31436.69
         Mg        10.231            3.292    351.12  31436.69
         Mg        10.232            3.292    351.12  31436.69
         Mg        10.497            3.292    351.12  31436.69
         Mg        10.275            3.292    351.12  31436.69
         Mg        10.497            3.292    351.12  31436.69
         Mg        10.251            3.292    351.12  31436.69
         Mg        10.251            3.292    351.12  31436.69
         Mg        10.275            3.292    351.12  31436.69
         Fe         8.679            3.252    219.01  20487.87
         Ni         8.194            3.162    258.21  21636.20
         Ni         8.194            3.162    258.21  21636.20
         Ni         8.385            3.162    258.01  21619.10
         Ni         8.240            3.162    258.15  21631.49
         Ni         8.240            3.162    258.15  21631.49

         Molecular C6 ( Ry / a.u.^6 ) =    108274.01


     number of k points=    78  Marzari-Vanderbilt smearing, width (Ry)=  0.0100
                       cart. coord. in units 2pi/alat
        k(    1) = (   0.0000000   0.0000000   0.0000000), wk =   0.0039063
        k(    2) = (   0.0000000   0.0000000   0.0984186), wk =   0.0078125
        k(    3) = (   0.0000000   0.0000000  -0.1968371), wk =   0.0039063
        k(    4) = (   0.0000000   0.1443376   0.0000000), wk =   0.0156250
        k(    5) = (   0.0000000   0.1443376   0.0984186), wk =   0.0156250
        k(    6) = (   0.0000000   0.1443376  -0.1968371), wk =   0.0156250
        k(    7) = (   0.0000000   0.2886751   0.0000000), wk =   0.0156250
        k(    8) = (   0.0000000   0.2886751   0.0984186), wk =   0.0156250
        k(    9) = (   0.0000000   0.2886751  -0.1968371), wk =   0.0156250
        k(   10) = (   0.0000000   0.4330127   0.0000000), wk =   0.0156250
        k(   11) = (   0.0000000   0.4330127   0.0984186), wk =   0.0156250
        k(   12) = (   0.0000000   0.4330127  -0.1968371), wk =   0.0156250
        k(   13) = (   0.0000000  -0.5773503   0.0000000), wk =   0.0078125
        k(   14) = (   0.0000000  -0.5773503   0.0984186), wk =   0.0156250
        k(   15) = (   0.0000000  -0.5773503  -0.1968371), wk =   0.0078125
        k(   16) = (   0.1250000   0.2165064   0.0000000), wk =   0.0078125
        k(   17) = (   0.1250000   0.2165064   0.0984186), wk =   0.0078125
        k(   18) = (   0.1250000   0.2165064  -0.1968371), wk =   0.0078125
        k(   19) = (   0.1250000   0.3608439   0.0000000), wk =   0.0156250
        k(   20) = (   0.1250000   0.3608439   0.0984186), wk =   0.0156250
        k(   21) = (   0.1250000   0.3608439  -0.1968371), wk =   0.0156250
        k(   22) = (   0.1250000   0.5051815   0.0000000), wk =   0.0156250
        k(   23) = (   0.1250000   0.5051815   0.0984186), wk =   0.0156250
        k(   24) = (   0.1250000   0.5051815  -0.1968371), wk =   0.0156250
        k(   25) = (   0.2500000   0.4330127   0.0000000), wk =   0.0078125
        k(   26) = (   0.2500000   0.4330127   0.0984186), wk =   0.0078125
        k(   27) = (   0.2500000   0.4330127  -0.1968371), wk =   0.0078125
        k(   28) = (   0.2500000   0.5773503   0.0000000), wk =   0.0156250
        k(   29) = (   0.2500000   0.5773503   0.0984186), wk =   0.0156250
        k(   30) = (   0.2500000   0.5773503  -0.1968371), wk =   0.0156250
        k(   31) = (  -0.1250000   0.0721688   0.0000000), wk =   0.0078125
        k(   32) = (   0.0000000   0.1443376  -0.0984186), wk =   0.0156250
        k(   33) = (  -0.1250000   0.0721688   0.0984186), wk =   0.0156250
        k(   34) = (  -0.1250000   0.0721688  -0.1968371), wk =   0.0078125
        k(   35) = (  -0.2500000   0.1443376   0.0000000), wk =   0.0078125
        k(   36) = (   0.0000000   0.2886751  -0.0984186), wk =   0.0156250
        k(   37) = (  -0.2500000   0.1443376   0.0984186), wk =   0.0156250
        k(   38) = (  -0.2500000   0.1443376  -0.1968371), wk =   0.0078125
        k(   39) = (  -0.3750000   0.2165064   0.0000000), wk =   0.0078125
        k(   40) = (   0.0000000   0.4330127  -0.0984186), wk =   0.0156250
        k(   41) = (  -0.3750000   0.2165064   0.0984186), wk =   0.0156250
        k(   42) = (  -0.3750000   0.2165064  -0.1968371), wk =   0.0078125
        k(   43) = (   0.5000000  -0.2886751   0.0000000), wk =   0.0039063
        k(   44) = (   0.5000000  -0.2886751   0.0984186), wk =   0.0078125
        k(   45) = (   0.5000000  -0.2886751  -0.1968371), wk =   0.0039063
        k(   46) = (  -0.1250000   0.2165064   0.0000000), wk =   0.0156250
        k(   47) = (  -0.1250000   0.2165064  -0.0984186), wk =   0.0156250
        k(   48) = (   0.1250000  -0.2165064  -0.0984186), wk =   0.0156250
        k(   49) = (  -0.1250000  -0.2165064   0.0984186), wk =   0.0078125
        k(   50) = (  -0.1250000   0.2165064   0.1968371), wk =   0.0156250
        k(   51) = (  -0.1250000   0.3608439   0.0000000), wk =   0.0156250
        k(   52) = (  -0.2500000   0.2886751   0.0000000), wk =   0.0156250
        k(   53) = (  -0.1250000   0.3608439  -0.0984186), wk =   0.0156250
        k(   54) = (   0.1250000  -0.3608439  -0.0984186), wk =   0.0156250
        k(   55) = (  -0.2500000   0.2886751   0.0984186), wk =   0.0156250
        k(   56) = (   0.2500000  -0.2886751   0.0984186), wk =   0.0156250
        k(   57) = (  -0.1250000  -0.3608439   0.0984186), wk =   0.0156250
        k(   58) = (  -0.1250000   0.3608439   0.1968371), wk =   0.0156250
        k(   59) = (  -0.2500000   0.2886751  -0.1968371), wk =   0.0156250
        k(   60) = (  -0.1250000   0.5051815   0.0000000), wk =   0.0156250
        k(   61) = (  -0.3750000   0.3608439   0.0000000), wk =   0.0156250
        k(   62) = (  -0.1250000   0.5051815  -0.0984186), wk =   0.0156250
        k(   63) = (   0.1250000  -0.5051815  -0.0984186), wk =   0.0156250
        k(   64) = (  -0.3750000   0.3608439   0.0984186), wk =   0.0156250
        k(   65) = (   0.3750000  -0.3608439   0.0984186), wk =   0.0156250
        k(   66) = (  -0.1250000  -0.5051815   0.0984186), wk =   0.0156250
        k(   67) = (  -0.1250000   0.5051815   0.1968371), wk =   0.0156250
        k(   68) = (  -0.3750000   0.3608439  -0.1968371), wk =   0.0156250
        k(   69) = (  -0.2500000   0.4330127   0.0000000), wk =   0.0156250
        k(   70) = (  -0.2500000   0.4330127  -0.0984186), wk =   0.0156250
        k(   71) = (   0.2500000  -0.4330127  -0.0984186), wk =   0.0156250
        k(   72) = (  -0.2500000  -0.4330127   0.0984186), wk =   0.0078125
        k(   73) = (  -0.2500000   0.4330127   0.1968371), wk =   0.0156250
        k(   74) = (  -0.3750000   0.5051815   0.0000000), wk =   0.0078125
        k(   75) = (   0.2500000  -0.5773503  -0.0984186), wk =   0.0156250
        k(   76) = (  -0.3750000   0.5051815   0.0984186), wk =   0.0078125
        k(   77) = (   0.3750000  -0.5051815   0.0984186), wk =   0.0078125
        k(   78) = (  -0.3750000   0.5051815  -0.1968371), wk =   0.0078125

     Dense  grid:   370373 G-vectors     FFT dimensions: (  72,  72, 180)

     Smooth grid:   130803 G-vectors     FFT dimensions: (  50,  50, 135)

     Estimated max dynamical RAM per process >       6.05 GB

     Check: negative core charge=   -0.000005
     Generating pointlists ...
     new r_m :   0.2104 (alat units)  2.0669 (a.u.) for type    1
     new r_m :   0.2104 (alat units)  2.0669 (a.u.) for type    2
     new r_m :   0.2063 (alat units)  2.0257 (a.u.) for type    3
     new r_m :   0.2062 (alat units)  2.0257 (a.u.) for type    4

     Initial potential from superposition of free atoms

     starting charge     130.9873, renormalised to     141.0000

     STARTING HUBBARD OCCUPATIONS:

     =================== HUBBARD OCCUPATIONS ===================
     ------------------------ ATOM   13 ------------------------
     Tr[ns( 13)] (up, down, total) =   5.00000  1.00000  6.00000
     Atomic magnetic moment for atom  13 =   4.00000
     SPIN  1
     eigenvalues:
       1.000  1.000  1.000  1.000  1.000
     eigenvectors (columns):
       1.000  0.000  0.000  0.000  0.000
       0.000  1.000  0.000  0.000  0.000
       0.000  0.000  1.000  0.000  0.000
       0.000  0.000  0.000  1.000  0.000
       0.000  0.000  0.000  0.000  1.000
     occupation matrix ns (before diag.):
       1.000  0.000  0.000  0.000  0.000
       0.000  1.000  0.000  0.000  0.000
       0.000  0.000  1.000  0.000  0.000
       0.000  0.000  0.000  1.000  0.000
       0.000  0.000  0.000  0.000  1.000
     SPIN  2
     eigenvalues:
       0.200  0.200  0.200  0.200  0.200
     eigenvectors (columns):
       1.000  0.000  0.000  0.000  0.000
       0.000  1.000  0.000  0.000  0.000
       0.000  0.000  1.000  0.000  0.000
       0.000  0.000  0.000  1.000  0.000
       0.000  0.000  0.000  0.000  1.000
     occupation matrix ns (before diag.):
       0.200  0.000  0.000  0.000  0.000
       0.000  0.200  0.000  0.000  0.000
       0.000  0.000  0.200  0.000  0.000
       0.000  0.000  0.000  0.200  0.000
       0.000  0.000  0.000  0.000  0.200
     ------------------------ ATOM   14 ------------------------
     Tr[ns( 14)] (up, down, total) =   4.00000  4.00000  8.00000
     Atomic magnetic moment for atom  14 =   0.00000
     SPIN  1
     eigenvalues:
       0.800  0.800  0.800  0.800  0.800
     eigenvectors (columns):
       1.000  0.000  0.000  0.000  0.000
       0.000  1.000  0.000  0.000  0.000
       0.000  0.000  1.000  0.000  0.000
       0.000  0.000  0.000  1.000  0.000
       0.000  0.000  0.000  0.000  1.000
     occupation matrix ns (before diag.):
       0.800  0.000  0.000  0.000  0.000
       0.000  0.800  0.000  0.000  0.000
       0.000  0.000  0.800  0.000  0.000
       0.000  0.000  0.000  0.800  0.000
       0.000  0.000  0.000  0.000  0.800
     SPIN  2
     eigenvalues:
       0.800  0.800  0.800  0.800  0.800
     eigenvectors (columns):
       1.000  0.000  0.000  0.000  0.000
       0.000  1.000  0.000  0.000  0.000
       0.000  0.000  1.000  0.000  0.000
       0.000  0.000  0.000  1.000  0.000
       0.000  0.000  0.000  0.000  1.000
     occupation matrix ns (before diag.):
       0.800  0.000  0.000  0.000  0.000
       0.000  0.800  0.000  0.000  0.000
       0.000  0.000  0.800  0.000  0.000
       0.000  0.000  0.000  0.800  0.000
       0.000  0.000  0.000  0.000  0.800
     ------------------------ ATOM   15 ------------------------
     Tr[ns( 15)] (up, down, total) =   4.00000  4.00000  8.00000
     Atomic magnetic moment for atom  15 =   0.00000
     SPIN  1
     eigenvalues:
       0.800  0.800  0.800  0.800  0.800
     eigenvectors (columns):
       1.000  0.000  0.000  0.000  0.000
       0.000  1.000  0.000  0.000  0.000
       0.000  0.000  1.000  0.000  0.000
       0.000  0.000  0.000  1.000  0.000
       0.000  0.000  0.000  0.000  1.000
     occupation matrix ns (before diag.):
       0.800  0.000  0.000  0.000  0.000
       0.000  0.800  0.000  0.000  0.000
       0.000  0.000  0.800  0.000  0.000
       0.000  0.000  0.000  0.800  0.000
       0.000  0.000  0.000  0.000  0.800
     SPIN  2
     eigenvalues:
       0.800  0.800  0.800  0.800  0.800
     eigenvectors (columns):
       1.000  0.000  0.000  0.000  0.000
       0.000  1.000  0.000  0.000  0.000
       0.000  0.000  1.000  0.000  0.000
       0.000  0.000  0.000  1.000  0.000
       0.000  0.000  0.000  0.000  1.000
     occupation matrix ns (before diag.):
       0.800  0.000  0.000  0.000  0.000
       0.000  0.800  0.000  0.000  0.000
       0.000  0.000  0.800  0.000  0.000
       0.000  0.000  0.000  0.800  0.000
       0.000  0.000  0.000  0.000  0.800
     ------------------------ ATOM   16 ------------------------
     Tr[ns( 16)] (up, down, total) =   4.00000  4.00000  8.00000
     Atomic magnetic moment for atom  16 =   0.00000
     SPIN  1
     eigenvalues:
       0.800  0.800  0.800  0.800  0.800
     eigenvectors (columns):
       1.000  0.000  0.000  0.000  0.000
       0.000  1.000  0.000  0.000  0.000
       0.000  0.000  1.000  0.000  0.000
       0.000  0.000  0.000  1.000  0.000
       0.000  0.000  0.000  0.000  1.000
     occupation matrix ns (before diag.):
       0.800  0.000  0.000  0.000  0.000
       0.000  0.800  0.000  0.000  0.000
       0.000  0.000  0.800  0.000  0.000
       0.000  0.000  0.000  0.800  0.000
       0.000  0.000  0.000  0.000  0.800
     SPIN  2
     eigenvalues:
       0.800  0.800  0.800  0.800  0.800
     eigenvectors (columns):
       1.000  0.000  0.000  0.000  0.000
       0.000  1.000  0.000  0.000  0.000
       0.000  0.000  1.000  0.000  0.000
       0.000  0.000  0.000  1.000  0.000
       0.000  0.000  0.000  0.000  1.000
     occupation matrix ns (before diag.):
       0.800  0.000  0.000  0.000  0.000
       0.000  0.800  0.000  0.000  0.000
       0.000  0.000  0.800  0.000  0.000
       0.000  0.000  0.000  0.800  0.000
       0.000  0.000  0.000  0.000  0.800
     ------------------------ ATOM   17 ------------------------
     Tr[ns( 17)] (up, down, total) =   4.00000  4.00000  8.00000
     Atomic magnetic moment for atom  17 =   0.00000
     SPIN  1
     eigenvalues:
       0.800  0.800  0.800  0.800  0.800
     eigenvectors (columns):
       1.000  0.000  0.000  0.000  0.000
       0.000  1.000  0.000  0.000  0.000
       0.000  0.000  1.000  0.000  0.000
       0.000  0.000  0.000  1.000  0.000
       0.000  0.000  0.000  0.000  1.000
     occupation matrix ns (before diag.):
       0.800  0.000  0.000  0.000  0.000
       0.000  0.800  0.000  0.000  0.000
       0.000  0.000  0.800  0.000  0.000
       0.000  0.000  0.000  0.800  0.000
       0.000  0.000  0.000  0.000  0.800
     SPIN  2
     eigenvalues:
       0.800  0.800  0.800  0.800  0.800
     eigenvectors (columns):
       1.000  0.000  0.000  0.000  0.000
       0.000  1.000  0.000  0.000  0.000
       0.000  0.000  1.000  0.000  0.000
       0.000  0.000  0.000  1.000  0.000
       0.000  0.000  0.000  0.000  1.000
     occupation matrix ns (before diag.):
       0.800  0.000  0.000  0.000  0.000
       0.000  0.800  0.000  0.000  0.000
       0.000  0.000  0.800  0.000  0.000
       0.000  0.000  0.000  0.800  0.000
       0.000  0.000  0.000  0.000  0.800
     ------------------------ ATOM   18 ------------------------
     Tr[ns( 18)] (up, down, total) =   4.00000  4.00000  8.00000
     Atomic magnetic moment for atom  18 =   0.00000
     SPIN  1
     eigenvalues:
       0.800  0.800  0.800  0.800  0.800
     eigenvectors (columns):
       1.000  0.000  0.000  0.000  0.000
       0.000  1.000  0.000  0.000  0.000
       0.000  0.000  1.000  0.000  0.000
       0.000  0.000  0.000  1.000  0.000
       0.000  0.000  0.000  0.000  1.000
     occupation matrix ns (before diag.):
       0.800  0.000  0.000  0.000  0.000
       0.000  0.800  0.000  0.000  0.000
       0.000  0.000  0.800  0.000  0.000
       0.000  0.000  0.000  0.800  0.000
       0.000  0.000  0.000  0.000  0.800
     SPIN  2
     eigenvalues:
       0.800  0.800  0.800  0.800  0.800
     eigenvectors (columns):
       1.000  0.000  0.000  0.000  0.000
       0.000  1.000  0.000  0.000  0.000
       0.000  0.000  1.000  0.000  0.000
       0.000  0.000  0.000  1.000  0.000
       0.000  0.000  0.000  0.000  1.000
     occupation matrix ns (before diag.):
       0.800  0.000  0.000  0.000  0.000
       0.000  0.800  0.000  0.000  0.000
       0.000  0.000  0.800  0.000  0.000
       0.000  0.000  0.000  0.800  0.000
       0.000  0.000  0.000  0.000  0.800

     Number of occupied Hubbard levels =   46.0000

     Atomic wfc used for Hubbard projectors are orthogonalized

     Starting wfcs are  132 randomized atomic wfcs

     total cpu time spent up to now is       13.2 secs

     Self-consistent Calculation

     iteration #  1     ecut=    60.00 Ry     beta= 0.40
     Davidson diagonalization with overlap
     ethr =  1.00E-02,  avg # of iterations =  4.5

     =================== HUBBARD OCCUPATIONS ===================
     ------------------------ ATOM   13 ------------------------
     Tr[ns( 13)] (up, down, total) =   0.04220  0.02190  0.06411
     Atomic magnetic moment for atom  13 =   0.02030
     SPIN  1
     eigenvalues:
       0.006  0.007  0.007  0.010  0.012
     eigenvectors (columns):
      -0.221 -0.000 -0.000 -0.064  0.973
      -0.003  0.350  0.792 -0.499 -0.033
      -0.005 -0.202 -0.457 -0.864 -0.058
      -0.488 -0.792  0.350  0.010 -0.110
       0.845 -0.457  0.202 -0.018  0.190
     occupation matrix ns (before diag.):
       0.012 -0.000 -0.000 -0.001  0.001
      -0.000  0.008  0.001  0.000  0.000
      -0.000  0.001  0.009 -0.000 -0.000
      -0.001  0.000 -0.000  0.007  0.001
       0.001  0.000 -0.000  0.001  0.006
     SPIN  2
     eigenvalues:
       0.003  0.004  0.004  0.005  0.006
     eigenvectors (columns):
      -0.206 -0.000 -0.000 -0.031  0.978
       0.000  0.234  0.834 -0.500 -0.016
       0.000 -0.135 -0.481 -0.866 -0.027
      -0.489 -0.834  0.234  0.003 -0.103
       0.848 -0.481  0.135 -0.005  0.178
     occupation matrix ns (before diag.):
       0.006 -0.000 -0.000 -0.000  0.001
      -0.000  0.004  0.001  0.000  0.000
      -0.000  0.001  0.005 -0.000 -0.000
      -0.000  0.000 -0.000  0.004  0.000
       0.001  0.000 -0.000  0.000  0.003
     ------------------------ ATOM   14 ------------------------
     Tr[ns( 14)] (up, down, total) =   2.06627  2.07007  4.13634
     Atomic magnetic moment for atom  14 =  -0.00380
     SPIN  1
     eigenvalues:
       0.373  0.393  0.415  0.424  0.461
     eigenvectors (columns):
      -0.393 -0.053  0.850 -0.336 -0.084
       0.374 -0.920  0.091 -0.046 -0.060
      -0.054  0.030 -0.107  0.038 -0.992
       0.838  0.386  0.362 -0.105 -0.077
      -0.027 -0.022  0.355  0.934 -0.002
     occupation matrix ns (before diag.):
       0.410  0.005  0.003  0.015 -0.003
       0.005  0.391  0.004 -0.005 -0.000
       0.003  0.004  0.461  0.005  0.000
       0.015 -0.005  0.005  0.383  0.000
      -0.003 -0.000  0.000  0.000  0.423
     SPIN  2
     eigenvalues:
       0.373  0.394  0.416  0.424  0.463
     eigenvectors (columns):
      -0.385 -0.068  0.862 -0.314 -0.075
       0.371 -0.923  0.077 -0.030 -0.058
      -0.055  0.031 -0.097  0.031 -0.993
       0.842  0.377  0.367 -0.091 -0.074
      -0.033 -0.017  0.327  0.944 -0.001
     occupation matrix ns (before diag.):
       0.411  0.005  0.003  0.015 -0.003
       0.005  0.391  0.004 -0.005 -0.000
       0.003  0.004  0.462  0.005  0.000
       0.015 -0.005  0.005  0.383  0.001
      -0.003 -0.000  0.000  0.001  0.423
     ------------------------ ATOM   15 ------------------------
     Tr[ns( 15)] (up, down, total) =   2.06627  2.07007  4.13634
     Atomic magnetic moment for atom  15 =  -0.00380
     SPIN  1
     eigenvalues:
       0.373  0.393  0.415  0.424  0.461
     eigenvectors (columns):
       0.393  0.053 -0.850 -0.336 -0.084
       0.234 -0.486  0.138  0.056 -0.829
      -0.296  0.782 -0.026 -0.021 -0.548
       0.396  0.174  0.488 -0.757  0.040
       0.739  0.346  0.136  0.558  0.066
     occupation matrix ns (before diag.):
       0.410 -0.000  0.006 -0.005 -0.015
      -0.000  0.439  0.032 -0.004 -0.006
       0.006  0.032  0.412  0.001  0.002
      -0.005 -0.004  0.001  0.413 -0.017
      -0.015 -0.006  0.002 -0.017  0.392
     SPIN  2
     eigenvalues:
       0.373  0.394  0.416  0.424  0.463
     eigenvectors (columns):
       0.385  0.068 -0.862 -0.314 -0.075
       0.233 -0.488  0.123  0.042 -0.831
      -0.294  0.784 -0.018 -0.011 -0.546
       0.392  0.174  0.467 -0.772  0.038
       0.746  0.335  0.154  0.551  0.063
     occupation matrix ns (before diag.):
       0.411 -0.000  0.006 -0.005 -0.014
      -0.000  0.441  0.033 -0.004 -0.006
       0.006  0.033  0.413  0.001  0.002
      -0.005 -0.004  0.001  0.414 -0.017
      -0.014 -0.006  0.002 -0.017  0.392
     ------------------------ ATOM   16 ------------------------
     Tr[ns( 16)] (up, down, total) =   0.03174  0.03053  0.06227
     Atomic magnetic moment for atom  16 =   0.00120
     SPIN  1
     eigenvalues:
       0.004  0.004  0.006  0.009  0.009
     eigenvectors (columns):
      -0.220  0.000  0.075 -0.973 -0.000
       0.019  0.023  0.498  0.034 -0.866
       0.032 -0.013  0.863  0.059  0.500
      -0.487  0.866  0.010  0.111  0.023
       0.844  0.500 -0.018 -0.193  0.013
     occupation matrix ns (before diag.):
       0.008 -0.000 -0.000 -0.001  0.001
      -0.000  0.009 -0.001 -0.000 -0.000
      -0.000 -0.001  0.007  0.000 -0.000
      -0.001 -0.000  0.000  0.004 -0.000
       0.001 -0.000 -0.000 -0.000  0.004
     SPIN  2
     eigenvalues:
       0.003  0.004  0.006  0.008  0.009
     eigenvectors (columns):
       0.000 -0.169  0.062 -0.984  0.000
      -0.015  0.023  0.499  0.027  0.866
       0.009  0.039  0.864  0.047 -0.500
      -0.866 -0.492  0.018  0.086 -0.015
      -0.500  0.853 -0.030 -0.149 -0.009
     occupation matrix ns (before diag.):
       0.008 -0.000 -0.000 -0.000  0.001
      -0.000  0.008 -0.002 -0.000 -0.000
      -0.000 -0.002  0.007  0.000 -0.000
      -0.000 -0.000  0.000  0.004 -0.000
       0.001 -0.000 -0.000 -0.000  0.004
     ------------------------ ATOM   17 ------------------------
     Tr[ns( 17)] (up, down, total) =   2.10704  2.10888  4.21592
     Atomic magnetic moment for atom  17 =  -0.00184
     SPIN  1
     eigenvalues:
       0.383  0.398  0.419  0.435  0.471
     eigenvectors (columns):
       0.304 -0.367 -0.766  0.426  0.062
       0.458  0.761 -0.349 -0.299  0.004
      -0.008 -0.024 -0.072 -0.000 -0.997
      -0.824  0.355 -0.420  0.134  0.028
      -0.139 -0.399 -0.330 -0.843  0.035
     occupation matrix ns (before diag.):
       0.416 -0.001 -0.003  0.013 -0.007
      -0.001  0.401  0.000  0.007  0.013
      -0.003  0.000  0.471 -0.002 -0.002
       0.013  0.007 -0.002  0.393 -0.003
      -0.007  0.013 -0.002 -0.003  0.427
     SPIN  2
     eigenvalues:
       0.384  0.398  0.418  0.436  0.473
     eigenvectors (columns):
      -0.321 -0.378 -0.758 -0.418  0.063
      -0.444  0.767 -0.358  0.295  0.002
       0.009 -0.026 -0.074  0.001 -0.997
       0.827  0.325 -0.438 -0.133  0.031
       0.125 -0.403 -0.318  0.849  0.037
     occupation matrix ns (before diag.):
       0.415 -0.001 -0.004  0.013 -0.008
      -0.001  0.401  0.000  0.007  0.013
      -0.004  0.000  0.473 -0.002 -0.002
       0.013  0.007 -0.002  0.393 -0.003
      -0.008  0.013 -0.002 -0.003  0.427
     ------------------------ ATOM   18 ------------------------
     Tr[ns( 18)] (up, down, total) =   2.10704  2.10888  4.21592
     Atomic magnetic moment for atom  18 =  -0.00184
     SPIN  1
     eigenvalues:
       0.383  0.398  0.419  0.435  0.471
     eigenvectors (columns):
       0.304  0.367  0.766 -0.426 -0.062
      -0.235  0.401 -0.112 -0.149  0.865
       0.393 -0.647  0.339  0.259  0.495
       0.533 -0.168 -0.496 -0.664  0.044
       0.644  0.507 -0.199  0.537  0.007
     occupation matrix ns (before diag.):
       0.416 -0.002 -0.003  0.000 -0.015
      -0.002  0.453  0.031  0.009  0.000
      -0.003  0.031  0.419 -0.011  0.000
       0.000  0.009 -0.011  0.416 -0.016
      -0.015  0.000  0.000 -0.016  0.404
     SPIN  2
     eigenvalues:
       0.384  0.398  0.418  0.436  0.473
     eigenvectors (columns):
       0.321  0.378  0.758 -0.418 -0.063
      -0.230  0.406 -0.115 -0.146  0.865
       0.379 -0.651  0.347  0.256  0.496
       0.522 -0.186 -0.494 -0.669  0.047
       0.654  0.483 -0.220  0.539  0.009
     occupation matrix ns (before diag.):
       0.415 -0.003 -0.003  0.000 -0.015
      -0.003  0.455  0.031  0.010  0.000
      -0.003  0.031  0.419 -0.011  0.001
       0.000  0.010 -0.011  0.416 -0.016
      -0.015  0.000  0.001 -0.016  0.404

     Number of occupied Hubbard levels =   16.8309

     negative rho (up, down):  9.900E-05 1.156E-04

     total cpu time spent up to now is       38.7 secs

     total energy              =   -2590.86461565 Ry
     estimated scf accuracy    <     320.32718050 Ry

     total magnetization       =     0.10 Bohr mag/cell
     absolute magnetization    =     0.19 Bohr mag/cell

     iteration #  2     ecut=    60.00 Ry     beta= 0.40
     Davidson diagonalization with overlap
     ethr =  1.00E-02,  avg # of iterations = 13.8

     total cpu time spent up to now is       91.6 secs

     total energy              =   -2561.36429568 Ry
     estimated scf accuracy    <    2732.50871536 Ry

     total magnetization       =     0.17 Bohr mag/cell
     absolute magnetization    =     0.22 Bohr mag/cell

     iteration #  3     ecut=    60.00 Ry     beta= 0.40
     Davidson diagonalization with overlap
     ethr =  1.00E-02,  avg # of iterations =  8.9

     total cpu time spent up to now is      130.7 secs

     total energy              =   -2745.63491459 Ry
     estimated scf accuracy    <     189.71704934 Ry

     total magnetization       =    -0.00 Bohr mag/cell
     absolute magnetization    =     0.12 Bohr mag/cell

     iteration #  4     ecut=    60.00 Ry     beta= 0.40
     Davidson diagonalization with overlap
     ethr =  1.00E-02,  avg # of iterations =  3.9

     total cpu time spent up to now is      152.9 secs

     total energy              =   -2749.64334570 Ry
     estimated scf accuracy    <      61.16929743 Ry

     total magnetization       =     0.78 Bohr mag/cell
     absolute magnetization    =     1.06 Bohr mag/cell

     iteration #  5     ecut=    60.00 Ry     beta= 0.40
     Davidson diagonalization with overlap
     ethr =  1.00E-02,  avg # of iterations =  2.2

     total cpu time spent up to now is      168.2 secs

     total energy              =   -2746.00425863 Ry
     estimated scf accuracy    <      37.31651621 Ry

     total magnetization       =     0.13 Bohr mag/cell
     absolute magnetization    =     0.35 Bohr mag/cell

     iteration #  6     ecut=    60.00 Ry     beta= 0.40
     Davidson diagonalization with overlap
     ethr =  1.00E-02,  avg # of iterations =  2.0

     total cpu time spent up to now is      183.1 secs

     total energy              =   -2746.99285560 Ry
     estimated scf accuracy    <      17.47777131 Ry

     total magnetization       =     1.61 Bohr mag/cell
     absolute magnetization    =     2.05 Bohr mag/cell

     iteration #  7     ecut=    60.00 Ry     beta= 0.40
     Davidson diagonalization with overlap
     ethr =  1.00E-02,  avg # of iterations =  1.6

     total cpu time spent up to now is      197.4 secs

     total energy              =   -2745.92053886 Ry
     estimated scf accuracy    <      23.13889336 Ry

     total magnetization       =     0.21 Bohr mag/cell
     absolute magnetization    =     0.34 Bohr mag/cell

     iteration #  8     ecut=    60.00 Ry     beta= 0.40
     Davidson diagonalization with overlap
     ethr =  1.00E-02,  avg # of iterations =  2.7

     total cpu time spent up to now is      215.6 secs

     total energy              =   -2743.81129832 Ry
     estimated scf accuracy    <      50.55454828 Ry

     total magnetization       =     0.11 Bohr mag/cell
     absolute magnetization    =     0.30 Bohr mag/cell

     iteration #  9     ecut=    60.00 Ry     beta= 0.40
     Davidson diagonalization with overlap
     ethr =  1.00E-02,  avg # of iterations =  2.0

     total cpu time spent up to now is      230.2 secs

     total energy              =   -2748.17111599 Ry
     estimated scf accuracy    <       5.66956900 Ry

     total magnetization       =     0.27 Bohr mag/cell
     absolute magnetization    =     0.51 Bohr mag/cell

     iteration # 10     ecut=    60.00 Ry     beta= 0.40
     Davidson diagonalization with overlap
     ethr =  4.02E-03,  avg # of iterations =  1.0

     total cpu time spent up to now is      242.7 secs

     total energy              =   -2748.06226089 Ry
     estimated scf accuracy    <       2.16316897 Ry

     total magnetization       =     0.64 Bohr mag/cell
     absolute magnetization    =     0.90 Bohr mag/cell

     iteration # 11     ecut=    60.00 Ry     beta= 0.40
     Davidson diagonalization with overlap
     ethr =  1.53E-03,  avg # of iterations =  1.9

     total cpu time spent up to now is      257.7 secs

     total energy              =   -2748.24598057 Ry
     estimated scf accuracy    <       0.62319566 Ry

     total magnetization       =     2.32 Bohr mag/cell
     absolute magnetization    =     2.73 Bohr mag/cell

     iteration # 12     ecut=    60.00 Ry     beta= 0.40
     Davidson diagonalization with overlap
     ethr =  4.42E-04,  avg # of iterations =  1.6

     total cpu time spent up to now is      273.3 secs

     total energy              =   -2748.24116853 Ry
     estimated scf accuracy    <       0.49077803 Ry

     total magnetization       =     2.47 Bohr mag/cell
     absolute magnetization    =     2.90 Bohr mag/cell

     iteration # 13     ecut=    60.00 Ry     beta= 0.40
     Davidson diagonalization with overlap
     ethr =  3.48E-04,  avg # of iterations =  1.1

     total cpu time spent up to now is      286.1 secs

     total energy              =   -2748.24355786 Ry
     estimated scf accuracy    <       0.49333487 Ry

     total magnetization       =     2.31 Bohr mag/cell
     absolute magnetization    =     2.72 Bohr mag/cell

     iteration # 14     ecut=    60.00 Ry     beta= 0.40
     Davidson diagonalization with overlap
     ethr =  3.48E-04,  avg # of iterations =  1.1

     total cpu time spent up to now is      299.1 secs

     total energy              =   -2748.28308827 Ry
     estimated scf accuracy    <       0.24829142 Ry

     total magnetization       =     2.18 Bohr mag/cell
     absolute magnetization    =     2.63 Bohr mag/cell

     iteration # 15     ecut=    60.00 Ry     beta= 0.40
     Davidson diagonalization with overlap
     ethr =  1.76E-04,  avg # of iterations =  1.5

     total cpu time spent up to now is      314.1 secs

     total energy              =   -2748.30014084 Ry
     estimated scf accuracy    <       0.49523073 Ry

     total magnetization       =     2.50 Bohr mag/cell
     absolute magnetization    =     2.97 Bohr mag/cell

     iteration # 16     ecut=    60.00 Ry     beta= 0.40
     Davidson diagonalization with overlap
     ethr =  1.76E-04,  avg # of iterations =  1.2

     negative rho (up, down):  0.000E+00 4.058E-06

     total cpu time spent up to now is      327.3 secs

     total energy              =   -2748.32100882 Ry
     estimated scf accuracy    <       0.38529805 Ry

     total magnetization       =     2.58 Bohr mag/cell
     absolute magnetization    =     3.08 Bohr mag/cell

     iteration # 17     ecut=    60.00 Ry     beta= 0.40
     Davidson diagonalization with overlap
     ethr =  1.76E-04,  avg # of iterations =  1.3

     negative rho (up, down):  0.000E+00 2.894E-05

     total cpu time spent up to now is      341.1 secs

     total energy              =   -2748.35851461 Ry
     estimated scf accuracy    <       0.58343619 Ry

     total magnetization       =     2.66 Bohr mag/cell
     absolute magnetization    =     3.22 Bohr mag/cell

     iteration # 18     ecut=    60.00 Ry     beta= 0.40
     Davidson diagonalization with overlap
     ethr =  1.76E-04,  avg # of iterations =  1.0

     negative rho (up, down):  0.000E+00 4.849E-05

     total cpu time spent up to now is      353.7 secs

     total energy              =   -2748.38611234 Ry
     estimated scf accuracy    <       0.39916235 Ry

     total magnetization       =     2.71 Bohr mag/cell
     absolute magnetization    =     3.30 Bohr mag/cell

     iteration # 19     ecut=    60.00 Ry     beta= 0.40
     Davidson diagonalization with overlap
     ethr =  1.76E-04,  avg # of iterations =  1.3

     negative rho (up, down):  0.000E+00 9.988E-05

     total cpu time spent up to now is      367.3 secs

     total energy              =   -2748.39717311 Ry
     estimated scf accuracy    <       0.24002960 Ry

     total magnetization       =     2.73 Bohr mag/cell
     absolute magnetization    =     3.36 Bohr mag/cell

     iteration # 20     ecut=    60.00 Ry     beta= 0.40
     Davidson diagonalization with overlap
     ethr =  1.70E-04,  avg # of iterations =  2.3

     negative rho (up, down):  0.000E+00 1.115E-04

     total cpu time spent up to now is      383.9 secs

     total energy              =   -2748.40906633 Ry
     estimated scf accuracy    <       0.07750102 Ry

     total magnetization       =     2.77 Bohr mag/cell
     absolute magnetization    =     3.52 Bohr mag/cell

     iteration # 21     ecut=    60.00 Ry     beta= 0.40
     Davidson diagonalization with overlap
     ethr =  5.50E-05,  avg # of iterations =  3.7

     negative rho (up, down):  0.000E+00 1.191E-04

     total cpu time spent up to now is      407.1 secs

     total energy              =   -2748.41662637 Ry
     estimated scf accuracy    <       0.04471249 Ry

     total magnetization       =     2.77 Bohr mag/cell
     absolute magnetization    =     3.56 Bohr mag/cell

     iteration # 22     ecut=    60.00 Ry     beta= 0.40
     Davidson diagonalization with overlap
     ethr =  3.17E-05,  avg # of iterations =  3.8

     negative rho (up, down):  0.000E+00 1.268E-04

     total cpu time spent up to now is      428.3 secs

     total energy              =   -2748.41825915 Ry
     estimated scf accuracy    <       0.02094652 Ry

     total magnetization       =     2.75 Bohr mag/cell
     absolute magnetization    =     3.58 Bohr mag/cell

     iteration # 23     ecut=    60.00 Ry     beta= 0.40
     Davidson diagonalization with overlap
     ethr =  1.49E-05,  avg # of iterations =  6.8

     negative rho (up, down):  0.000E+00 1.337E-04

     total cpu time spent up to now is      458.6 secs

     total energy              =   -2748.42051556 Ry
     estimated scf accuracy    <       0.00483783 Ry

     total magnetization       =     2.71 Bohr mag/cell
     absolute magnetization    =     3.65 Bohr mag/cell

     iteration # 24     ecut=    60.00 Ry     beta= 0.40
     Davidson diagonalization with overlap
     c_bands:  1 eigenvalues not converged
     c_bands:  1 eigenvalues not converged
     ethr =  3.43E-06,  avg # of iterations =  6.8

     negative rho (up, down):  0.000E+00 1.355E-04

     total cpu time spent up to now is      485.8 secs

     total energy              =   -2748.42179986 Ry
     estimated scf accuracy    <       0.00100205 Ry

     total magnetization       =     2.70 Bohr mag/cell
     absolute magnetization    =     3.68 Bohr mag/cell

     iteration # 25     ecut=    60.00 Ry     beta= 0.40
     Davidson diagonalization with overlap
     ethr =  7.11E-07,  avg # of iterations =  5.3

     negative rho (up, down):  0.000E+00 1.359E-04

     total cpu time spent up to now is      510.0 secs

     total energy              =   -2748.42225886 Ry
     estimated scf accuracy    <       0.00021867 Ry

     total magnetization       =     2.68 Bohr mag/cell
     absolute magnetization    =     3.72 Bohr mag/cell

     iteration # 26     ecut=    60.00 Ry     beta= 0.40
     Davidson diagonalization with overlap
     ethr =  1.55E-07,  avg # of iterations =  3.5

     negative rho (up, down):  0.000E+00 1.360E-04

     total cpu time spent up to now is      529.1 secs

     total energy              =   -2748.42234366 Ry
     estimated scf accuracy    <       0.00010574 Ry

     total magnetization       =     2.65 Bohr mag/cell
     absolute magnetization    =     3.76 Bohr mag/cell

     iteration # 27     ecut=    60.00 Ry     beta= 0.40
     Davidson diagonalization with overlap
     ethr =  7.50E-08,  avg # of iterations =  2.2

     negative rho (up, down):  0.000E+00 1.360E-04

     total cpu time spent up to now is      544.6 secs

     total energy              =   -2748.42237123 Ry
     estimated scf accuracy    <       0.00008190 Ry

     total magnetization       =     2.64 Bohr mag/cell
     absolute magnetization    =     3.78 Bohr mag/cell

     iteration # 28     ecut=    60.00 Ry     beta= 0.40
     Davidson diagonalization with overlap
     ethr =  5.81E-08,  avg # of iterations =  1.3

     negative rho (up, down):  0.000E+00 1.364E-04

     total cpu time spent up to now is      558.2 secs

     total energy              =   -2748.42239490 Ry
     estimated scf accuracy    <       0.00004025 Ry

     total magnetization       =     2.62 Bohr mag/cell
     absolute magnetization    =     3.80 Bohr mag/cell

     iteration # 29     ecut=    60.00 Ry     beta= 0.40
     Davidson diagonalization with overlap
     ethr =  2.85E-08,  avg # of iterations =  2.4

     negative rho (up, down):  0.000E+00 1.366E-04

     total cpu time spent up to now is      574.0 secs

     total energy              =   -2748.42241544 Ry
     estimated scf accuracy    <       0.00001674 Ry

     total magnetization       =     2.60 Bohr mag/cell
     absolute magnetization    =     3.82 Bohr mag/cell

     iteration # 30     ecut=    60.00 Ry     beta= 0.40
     Davidson diagonalization with overlap
     ethr =  1.19E-08,  avg # of iterations =  2.8

     negative rho (up, down):  0.000E+00 1.368E-04

     total cpu time spent up to now is      590.9 secs

     total energy              =   -2748.42243588 Ry
     estimated scf accuracy    <       0.00001357 Ry

     total magnetization       =     2.59 Bohr mag/cell
     absolute magnetization    =     3.84 Bohr mag/cell

     iteration # 31     ecut=    60.00 Ry     beta= 0.40
     Davidson diagonalization with overlap
     ethr =  9.62E-09,  avg # of iterations =  2.7

     negative rho (up, down):  0.000E+00 1.368E-04

     total cpu time spent up to now is      608.2 secs

     total energy              =   -2748.42245237 Ry
     estimated scf accuracy    <       0.00001267 Ry

     total magnetization       =     2.57 Bohr mag/cell
     absolute magnetization    =     3.87 Bohr mag/cell

     iteration # 32     ecut=    60.00 Ry     beta= 0.40
     Davidson diagonalization with overlap
     ethr =  8.99E-09,  avg # of iterations =  2.0

     negative rho (up, down):  0.000E+00 1.368E-04

     total cpu time spent up to now is      622.9 secs

     total energy              =   -2748.42242593 Ry
     estimated scf accuracy    <       0.00001315 Ry

     total magnetization       =     2.55 Bohr mag/cell
     absolute magnetization    =     3.88 Bohr mag/cell

     iteration # 33     ecut=    60.00 Ry     beta= 0.40
     Davidson diagonalization with overlap
     ethr =  8.99E-09,  avg # of iterations =  2.0

     negative rho (up, down):  0.000E+00 1.368E-04

     total cpu time spent up to now is      637.6 secs

     total energy              =   -2748.42242687 Ry
     estimated scf accuracy    <       0.00001259 Ry

     total magnetization       =     2.58 Bohr mag/cell
     absolute magnetization    =     3.86 Bohr mag/cell

     iteration # 34     ecut=    60.00 Ry     beta= 0.40
     Davidson diagonalization with overlap
     ethr =  8.93E-09,  avg # of iterations =  1.3

     negative rho (up, down):  0.000E+00 1.368E-04

     total cpu time spent up to now is      651.3 secs

     total energy              =   -2748.42241868 Ry
     estimated scf accuracy    <       0.00001320 Ry

     total magnetization       =     2.58 Bohr mag/cell
     absolute magnetization    =     3.85 Bohr mag/cell

     iteration # 35     ecut=    60.00 Ry     beta= 0.40
     Davidson diagonalization with overlap
     ethr =  8.93E-09,  avg # of iterations =  1.5

     negative rho (up, down):  0.000E+00 1.367E-04

     total cpu time spent up to now is      665.4 secs

     total energy              =   -2748.42236138 Ry
     estimated scf accuracy    <       0.00001292 Ry

     total magnetization       =     2.59 Bohr mag/cell
     absolute magnetization    =     3.84 Bohr mag/cell

     iteration # 36     ecut=    60.00 Ry     beta= 0.40
     Davidson diagonalization with overlap
     ethr =  8.93E-09,  avg # of iterations =  3.7

     negative rho (up, down):  0.000E+00 1.368E-04

     total cpu time spent up to now is      685.5 secs

     total energy              =   -2748.42214173 Ry
     estimated scf accuracy    <       0.00001434 Ry

     total magnetization       =     2.63 Bohr mag/cell
     absolute magnetization    =     3.79 Bohr mag/cell

     iteration # 37     ecut=    60.00 Ry     beta= 0.40
     Davidson diagonalization with overlap
     ethr =  8.93E-09,  avg # of iterations =  4.7

     negative rho (up, down):  0.000E+00 1.368E-04

     total cpu time spent up to now is      708.8 secs

     total energy              =   -2748.42218202 Ry
     estimated scf accuracy    <       0.00001253 Ry

     total magnetization       =     2.75 Bohr mag/cell
     absolute magnetization    =     3.65 Bohr mag/cell

     iteration # 38     ecut=    60.00 Ry     beta= 0.40
     Davidson diagonalization with overlap
     ethr =  8.89E-09,  avg # of iterations =  4.5

     negative rho (up, down):  0.000E+00 1.368E-04

     total cpu time spent up to now is      730.6 secs

     total energy              =   -2748.42218309 Ry
     estimated scf accuracy    <       0.00000706 Ry

     total magnetization       =     2.83 Bohr mag/cell
     absolute magnetization    =     3.56 Bohr mag/cell

     iteration # 39     ecut=    60.00 Ry     beta= 0.40
     Davidson diagonalization with overlap
     ethr =  5.00E-09,  avg # of iterations =  4.5

     negative rho (up, down):  0.000E+00 1.368E-04

     total cpu time spent up to now is      752.4 secs

     total energy              =   -2748.42213423 Ry
     estimated scf accuracy    <       0.00001298 Ry

     total magnetization       =     2.90 Bohr mag/cell
     absolute magnetization    =     3.55 Bohr mag/cell

     iteration # 40     ecut=    60.00 Ry     beta= 0.40
     Davidson diagonalization with overlap
     ethr =  5.00E-09,  avg # of iterations =  4.8

     negative rho (up, down):  0.000E+00 1.368E-04

     total cpu time spent up to now is      775.8 secs

     total energy              =   -2748.42221331 Ry
     estimated scf accuracy    <       0.00003167 Ry

     total magnetization       =     2.99 Bohr mag/cell
     absolute magnetization    =     3.60 Bohr mag/cell

     iteration # 41     ecut=    60.00 Ry     beta= 0.40
     Davidson diagonalization with overlap
     ethr =  5.00E-09,  avg # of iterations =  2.6

     negative rho (up, down):  0.000E+00 1.368E-04

     total cpu time spent up to now is      792.6 secs

     total energy              =   -2748.42221632 Ry
     estimated scf accuracy    <       0.00001437 Ry

     total magnetization       =     3.00 Bohr mag/cell
     absolute magnetization    =     3.62 Bohr mag/cell

     iteration # 42     ecut=    60.00 Ry     beta= 0.40
     Davidson diagonalization with overlap
     ethr =  5.00E-09,  avg # of iterations =  2.0

     negative rho (up, down):  0.000E+00 1.368E-04

     total cpu time spent up to now is      808.0 secs

     total energy              =   -2748.42220876 Ry
     estimated scf accuracy    <       0.00000129 Ry

     total magnetization       =     3.00 Bohr mag/cell
     absolute magnetization    =     3.61 Bohr mag/cell

     iteration # 43     ecut=    60.00 Ry     beta= 0.40
     Davidson diagonalization with overlap
     ethr =  9.17E-10,  avg # of iterations =  4.7

     negative rho (up, down):  0.000E+00 1.368E-04

     total cpu time spent up to now is      830.6 secs

     total energy              =   -2748.42221481 Ry
     estimated scf accuracy    <       0.00000596 Ry

     total magnetization       =     3.03 Bohr mag/cell
     absolute magnetization    =     3.64 Bohr mag/cell

     iteration # 44     ecut=    60.00 Ry     beta= 0.40
     Davidson diagonalization with overlap
     ethr =  9.17E-10,  avg # of iterations =  4.4

     negative rho (up, down):  0.000E+00 1.368E-04

     total cpu time spent up to now is      852.3 secs

     total energy              =   -2748.42222132 Ry
     estimated scf accuracy    <       0.00000170 Ry

     total magnetization       =     3.05 Bohr mag/cell
     absolute magnetization    =     3.66 Bohr mag/cell

     iteration # 45     ecut=    60.00 Ry     beta= 0.40
     Davidson diagonalization with overlap
     ethr =  9.17E-10,  avg # of iterations =  2.1

     negative rho (up, down):  0.000E+00 1.369E-04

     total cpu time spent up to now is      867.1 secs

     total energy              =   -2748.42222103 Ry
     estimated scf accuracy    <       0.00000622 Ry

     total magnetization       =     3.05 Bohr mag/cell
     absolute magnetization    =     3.66 Bohr mag/cell

     iteration # 46     ecut=    60.00 Ry     beta= 0.40
     Davidson diagonalization with overlap
     ethr =  9.17E-10,  avg # of iterations =  3.0

     negative rho (up, down):  0.000E+00 1.369E-04

     total cpu time spent up to now is      884.9 secs

     total energy              =   -2748.42222134 Ry
     estimated scf accuracy    <       0.00000034 Ry

     total magnetization       =     3.06 Bohr mag/cell
     absolute magnetization    =     3.67 Bohr mag/cell

     iteration # 47     ecut=    60.00 Ry     beta= 0.40
     Davidson diagonalization with overlap
     ethr =  2.43E-10,  avg # of iterations =  4.6

     negative rho (up, down):  0.000E+00 1.369E-04

     total cpu time spent up to now is      907.4 secs

     total energy              =   -2748.42222282 Ry
     estimated scf accuracy    <       0.00000033 Ry

     total magnetization       =     3.05 Bohr mag/cell
     absolute magnetization    =     3.67 Bohr mag/cell

     iteration # 48     ecut=    60.00 Ry     beta= 0.40
     Davidson diagonalization with overlap
     ethr =  2.35E-10,  avg # of iterations =  3.6

     negative rho (up, down):  0.000E+00 1.369E-04

     total cpu time spent up to now is      927.4 secs

     total energy              =   -2748.42222214 Ry
     estimated scf accuracy    <       0.00000022 Ry

     total magnetization       =     3.05 Bohr mag/cell
     absolute magnetization    =     3.67 Bohr mag/cell

     iteration # 49     ecut=    60.00 Ry     beta= 0.40
     Davidson diagonalization with overlap
     ethr =  1.55E-10,  avg # of iterations =  4.3

     negative rho (up, down):  0.000E+00 1.369E-04

     total cpu time spent up to now is      949.0 secs

     total energy              =   -2748.42222301 Ry
     estimated scf accuracy    <       0.00000012 Ry

     total magnetization       =     3.04 Bohr mag/cell
     absolute magnetization    =     3.67 Bohr mag/cell

     iteration # 50     ecut=    60.00 Ry     beta= 0.40
     Davidson diagonalization with overlap
     ethr =  8.77E-11,  avg # of iterations =  5.1

     negative rho (up, down):  0.000E+00 1.369E-04

     total cpu time spent up to now is      972.4 secs

     total energy              =   -2748.42222279 Ry
     estimated scf accuracy    <       0.00000013 Ry

     total magnetization       =     3.04 Bohr mag/cell
     absolute magnetization    =     3.67 Bohr mag/cell

     iteration # 51     ecut=    60.00 Ry     beta= 0.40
     Davidson diagonalization with overlap
     ethr =  8.77E-11,  avg # of iterations =  4.1

     negative rho (up, down):  0.000E+00 1.368E-04

     total cpu time spent up to now is      993.6 secs

     total energy              =   -2748.42222318 Ry
     estimated scf accuracy    <       0.00000008 Ry

     total magnetization       =     3.04 Bohr mag/cell
     absolute magnetization    =     3.67 Bohr mag/cell

     iteration # 52     ecut=    60.00 Ry     beta= 0.40
     Davidson diagonalization with overlap
     ethr =  5.99E-11,  avg # of iterations =  4.1

     negative rho (up, down):  0.000E+00 1.368E-04

     total cpu time spent up to now is     1014.3 secs

     total energy              =   -2748.42222332 Ry
     estimated scf accuracy    <       0.00000009 Ry

     total magnetization       =     3.03 Bohr mag/cell
     absolute magnetization    =     3.67 Bohr mag/cell

     iteration # 53     ecut=    60.00 Ry     beta= 0.40
     Davidson diagonalization with overlap
     ethr =  5.99E-11,  avg # of iterations =  4.0

     negative rho (up, down):  0.000E+00 1.368E-04

     total cpu time spent up to now is     1034.6 secs

     total energy              =   -2748.42222327 Ry
     estimated scf accuracy    <       0.00000005 Ry

     total magnetization       =     3.03 Bohr mag/cell
     absolute magnetization    =     3.67 Bohr mag/cell

     iteration # 54     ecut=    60.00 Ry     beta= 0.40
     Davidson diagonalization with overlap
     ethr =  3.39E-11,  avg # of iterations =  4.5

     negative rho (up, down):  0.000E+00 1.368E-04

     total cpu time spent up to now is     1057.3 secs

     total energy              =   -2748.42222345 Ry
     estimated scf accuracy    <       0.00000004 Ry

     total magnetization       =     3.03 Bohr mag/cell
     absolute magnetization    =     3.67 Bohr mag/cell

     iteration # 55     ecut=    60.00 Ry     beta= 0.40
     Davidson diagonalization with overlap
     ethr =  2.96E-11,  avg # of iterations =  4.0

     negative rho (up, down):  0.000E+00 1.368E-04

     total cpu time spent up to now is     1077.9 secs

     total energy              =   -2748.42222352 Ry
     estimated scf accuracy    <       0.00000005 Ry

     total magnetization       =     3.03 Bohr mag/cell
     absolute magnetization    =     3.68 Bohr mag/cell

     iteration # 56     ecut=    60.00 Ry     beta= 0.40
     Davidson diagonalization with overlap
     ethr =  2.96E-11,  avg # of iterations =  3.7

     negative rho (up, down):  0.000E+00 1.369E-04

     total cpu time spent up to now is     1098.5 secs

     total energy              =   -2748.42222352 Ry
     estimated scf accuracy    <       0.00000003 Ry

     total magnetization       =     3.02 Bohr mag/cell
     absolute magnetization    =     3.68 Bohr mag/cell

     iteration # 57     ecut=    60.00 Ry     beta= 0.40
     Davidson diagonalization with overlap
     ethr =  2.31E-11,  avg # of iterations =  4.1

     negative rho (up, down):  0.000E+00 1.369E-04

     total cpu time spent up to now is     1118.6 secs

     total energy              =   -2748.42222344 Ry
     estimated scf accuracy    <       0.00000002 Ry

     total magnetization       =     3.02 Bohr mag/cell
     absolute magnetization    =     3.68 Bohr mag/cell

     iteration # 58     ecut=    60.00 Ry     beta= 0.40
     Davidson diagonalization with overlap
     ethr =  1.70E-11,  avg # of iterations =  4.8

     negative rho (up, down):  0.000E+00 1.369E-04

     total cpu time spent up to now is     1141.7 secs

     total energy              =   -2748.42222365 Ry
     estimated scf accuracy    <       0.00000001 Ry

     total magnetization       =     3.02 Bohr mag/cell
     absolute magnetization    =     3.68 Bohr mag/cell

     iteration # 59     ecut=    60.00 Ry     beta= 0.40
     Davidson diagonalization with overlap
     ethr =  1.04E-11,  avg # of iterations =  4.6

     negative rho (up, down):  0.000E+00 1.369E-04

     total cpu time spent up to now is     1163.1 secs

     total energy              =   -2748.42222363 Ry
     estimated scf accuracy    <       0.00000001 Ry

     total magnetization       =     3.02 Bohr mag/cell
     absolute magnetization    =     3.68 Bohr mag/cell

     iteration # 60     ecut=    60.00 Ry     beta= 0.40
     Davidson diagonalization with overlap
     ethr =  8.66E-12,  avg # of iterations =  4.3

     negative rho (up, down):  0.000E+00 1.369E-04

     total cpu time spent up to now is     1184.9 secs

     total energy              =   -2748.42222368 Ry
     estimated scf accuracy    <          9.0E-09 Ry

     total magnetization       =     3.02 Bohr mag/cell
     absolute magnetization    =     3.68 Bohr mag/cell

     iteration # 61     ecut=    60.00 Ry     beta= 0.40
     Davidson diagonalization with overlap
     ethr =  6.36E-12,  avg # of iterations =  3.1

     negative rho (up, down):  0.000E+00 1.369E-04

     total cpu time spent up to now is     1203.2 secs

     total energy              =   -2748.42222369 Ry
     estimated scf accuracy    <          9.0E-09 Ry

     total magnetization       =     3.02 Bohr mag/cell
     absolute magnetization    =     3.68 Bohr mag/cell

     iteration # 62     ecut=    60.00 Ry     beta= 0.40
     Davidson diagonalization with overlap
     ethr =  6.36E-12,  avg # of iterations =  2.6

     negative rho (up, down):  0.000E+00 1.369E-04

     total cpu time spent up to now is     1220.5 secs

     total energy              =   -2748.42222370 Ry
     estimated scf accuracy    <          7.7E-09 Ry

     total magnetization       =     3.02 Bohr mag/cell
     absolute magnetization    =     3.68 Bohr mag/cell

     iteration # 63     ecut=    60.00 Ry     beta= 0.40
     Davidson diagonalization with overlap
     ethr =  5.46E-12,  avg # of iterations =  2.3

     negative rho (up, down):  0.000E+00 1.369E-04

     total cpu time spent up to now is     1236.4 secs

     total energy              =   -2748.42222372 Ry
     estimated scf accuracy    <          7.5E-09 Ry

     total magnetization       =     3.02 Bohr mag/cell
     absolute magnetization    =     3.68 Bohr mag/cell

     iteration # 64     ecut=    60.00 Ry     beta= 0.40
     Davidson diagonalization with overlap
     ethr =  5.31E-12,  avg # of iterations =  3.4

     negative rho (up, down):  0.000E+00 1.369E-04

     total cpu time spent up to now is     1256.0 secs

     total energy              =   -2748.42222369 Ry
     estimated scf accuracy    <          7.6E-09 Ry

     total magnetization       =     3.02 Bohr mag/cell
     absolute magnetization    =     3.68 Bohr mag/cell

     iteration # 65     ecut=    60.00 Ry     beta= 0.40
     Davidson diagonalization with overlap
     ethr =  5.31E-12,  avg # of iterations =  3.2

     negative rho (up, down):  0.000E+00 1.369E-04

     total cpu time spent up to now is     1274.9 secs

     total energy              =   -2748.42222368 Ry
     estimated scf accuracy    <          9.1E-09 Ry

     total magnetization       =     3.02 Bohr mag/cell
     absolute magnetization    =     3.68 Bohr mag/cell

     iteration # 66     ecut=    60.00 Ry     beta= 0.40
     Davidson diagonalization with overlap
     ethr =  5.31E-12,  avg # of iterations =  3.0

     negative rho (up, down):  0.000E+00 1.369E-04

     total cpu time spent up to now is     1292.5 secs

     total energy              =   -2748.42222368 Ry
     estimated scf accuracy    <          7.7E-09 Ry

     total magnetization       =     3.02 Bohr mag/cell
     absolute magnetization    =     3.68 Bohr mag/cell

     iteration # 67     ecut=    60.00 Ry     beta= 0.40
     Davidson diagonalization with overlap
     ethr =  5.31E-12,  avg # of iterations =  2.5

     negative rho (up, down):  0.000E+00 1.369E-04

     total cpu time spent up to now is     1308.8 secs

     total energy              =   -2748.42222367 Ry
     estimated scf accuracy    <          7.0E-09 Ry

     total magnetization       =     3.02 Bohr mag/cell
     absolute magnetization    =     3.68 Bohr mag/cell

     iteration # 68     ecut=    60.00 Ry     beta= 0.40
     Davidson diagonalization with overlap
     ethr =  4.95E-12,  avg # of iterations =  3.0

     negative rho (up, down):  0.000E+00 1.369E-04

     total cpu time spent up to now is     1326.4 secs

     total energy              =   -2748.42222368 Ry
     estimated scf accuracy    <          7.0E-09 Ry

     total magnetization       =     3.02 Bohr mag/cell
     absolute magnetization    =     3.68 Bohr mag/cell

     iteration # 69     ecut=    60.00 Ry     beta= 0.40
     Davidson diagonalization with overlap
     ethr =  4.93E-12,  avg # of iterations =  2.1

     negative rho (up, down):  0.000E+00 1.369E-04

     total cpu time spent up to now is     1341.2 secs

     total energy              =   -2748.42222366 Ry
     estimated scf accuracy    <          7.8E-09 Ry

     total magnetization       =     3.02 Bohr mag/cell
     absolute magnetization    =     3.68 Bohr mag/cell

     iteration # 70     ecut=    60.00 Ry     beta= 0.40
     Davidson diagonalization with overlap
     ethr =  4.93E-12,  avg # of iterations =  2.9

     negative rho (up, down):  0.000E+00 1.369E-04

     total cpu time spent up to now is     1358.9 secs

     total energy              =   -2748.42222366 Ry
     estimated scf accuracy    <          6.5E-09 Ry

     total magnetization       =     3.02 Bohr mag/cell
     absolute magnetization    =     3.68 Bohr mag/cell

     iteration # 71     ecut=    60.00 Ry     beta= 0.40
     Davidson diagonalization with overlap
     ethr =  4.62E-12,  avg # of iterations =  2.1

     negative rho (up, down):  0.000E+00 1.369E-04

     total cpu time spent up to now is     1373.8 secs

     total energy              =   -2748.42222366 Ry
     estimated scf accuracy    <          5.9E-09 Ry

     total magnetization       =     3.02 Bohr mag/cell
     absolute magnetization    =     3.68 Bohr mag/cell

     iteration # 72     ecut=    60.00 Ry     beta= 0.40
     Davidson diagonalization with overlap
     ethr =  4.22E-12,  avg # of iterations =  2.0

     negative rho (up, down):  0.000E+00 1.369E-04

     total cpu time spent up to now is     1388.4 secs

     total energy              =   -2748.42222366 Ry
     estimated scf accuracy    <          5.7E-09 Ry

     total magnetization       =     3.02 Bohr mag/cell
     absolute magnetization    =     3.68 Bohr mag/cell

     iteration # 73     ecut=    60.00 Ry     beta= 0.40
     Davidson diagonalization with overlap
     ethr =  4.05E-12,  avg # of iterations =  1.8

     negative rho (up, down):  0.000E+00 1.369E-04

     total cpu time spent up to now is     1403.7 secs

     total energy              =   -2748.42222367 Ry
     estimated scf accuracy    <          5.7E-09 Ry

     total magnetization       =     3.02 Bohr mag/cell
     absolute magnetization    =     3.68 Bohr mag/cell

     iteration # 74     ecut=    60.00 Ry     beta= 0.40
     Davidson diagonalization with overlap
     ethr =  4.02E-12,  avg # of iterations =  3.3

     negative rho (up, down):  0.000E+00 1.369E-04

     total cpu time spent up to now is     1422.0 secs

     total energy              =   -2748.42222367 Ry
     estimated scf accuracy    <          5.3E-09 Ry

     total magnetization       =     3.02 Bohr mag/cell
     absolute magnetization    =     3.68 Bohr mag/cell

     iteration # 75     ecut=    60.00 Ry     beta= 0.40
     Davidson diagonalization with overlap
     ethr =  3.77E-12,  avg # of iterations =  2.3

     negative rho (up, down):  0.000E+00 1.369E-04

     total cpu time spent up to now is     1438.0 secs

     total energy              =   -2748.42222368 Ry
     estimated scf accuracy    <          5.0E-09 Ry

     total magnetization       =     3.02 Bohr mag/cell
     absolute magnetization    =     3.68 Bohr mag/cell

     iteration # 76     ecut=    60.00 Ry     beta= 0.40
     Davidson diagonalization with overlap
     ethr =  3.52E-12,  avg # of iterations =  2.5

     negative rho (up, down):  0.000E+00 1.369E-04

     total cpu time spent up to now is     1454.3 secs

     total energy              =   -2748.42222369 Ry
     estimated scf accuracy    <          5.0E-09 Ry

     total magnetization       =     3.02 Bohr mag/cell
     absolute magnetization    =     3.68 Bohr mag/cell

     iteration # 77     ecut=    60.00 Ry     beta= 0.40
     Davidson diagonalization with overlap
     ethr =  3.52E-12,  avg # of iterations =  1.7

     negative rho (up, down):  0.000E+00 1.369E-04

     total cpu time spent up to now is     1469.1 secs

     total energy              =   -2748.42222369 Ry
     estimated scf accuracy    <          4.9E-09 Ry

     total magnetization       =     3.02 Bohr mag/cell
     absolute magnetization    =     3.68 Bohr mag/cell

     iteration # 78     ecut=    60.00 Ry     beta= 0.40
     Davidson diagonalization with overlap
     ethr =  3.49E-12,  avg # of iterations =  3.1

     negative rho (up, down):  0.000E+00 1.369E-04

     total cpu time spent up to now is     1488.0 secs

     total energy              =   -2748.42222369 Ry
     estimated scf accuracy    <          5.4E-09 Ry

     total magnetization       =     3.02 Bohr mag/cell
     absolute magnetization    =     3.68 Bohr mag/cell

     iteration # 79     ecut=    60.00 Ry     beta= 0.40
     Davidson diagonalization with overlap
     ethr =  3.49E-12,  avg # of iterations =  3.5

     negative rho (up, down):  0.000E+00 1.369E-04

     total cpu time spent up to now is     1507.3 secs

     total energy              =   -2748.42222370 Ry
     estimated scf accuracy    <          5.2E-09 Ry

     total magnetization       =     3.02 Bohr mag/cell
     absolute magnetization    =     3.68 Bohr mag/cell

     iteration # 80     ecut=    60.00 Ry     beta= 0.40
     Davidson diagonalization with overlap
     ethr =  3.49E-12,  avg # of iterations =  2.7

     negative rho (up, down):  0.000E+00 1.369E-04

     total cpu time spent up to now is     1524.6 secs

     total energy              =   -2748.42222370 Ry
     estimated scf accuracy    <          5.1E-09 Ry

     total magnetization       =     3.02 Bohr mag/cell
     absolute magnetization    =     3.68 Bohr mag/cell

     iteration # 81     ecut=    60.00 Ry     beta= 0.40
     Davidson diagonalization with overlap
     ethr =  3.49E-12,  avg # of iterations =  1.5

     negative rho (up, down):  0.000E+00 1.369E-04

     total cpu time spent up to now is     1539.1 secs

     total energy              =   -2748.42222368 Ry
     estimated scf accuracy    <          5.0E-09 Ry

     total magnetization       =     3.02 Bohr mag/cell
     absolute magnetization    =     3.68 Bohr mag/cell

     iteration # 82     ecut=    60.00 Ry     beta= 0.40
     Davidson diagonalization with overlap
     ethr =  3.49E-12,  avg # of iterations =  3.8

     negative rho (up, down):  0.000E+00 1.369E-04

     total cpu time spent up to now is     1559.2 secs

     total energy              =   -2748.42222352 Ry
     estimated scf accuracy    <          5.4E-09 Ry

     total magnetization       =     3.02 Bohr mag/cell
     absolute magnetization    =     3.68 Bohr mag/cell

     iteration # 83     ecut=    60.00 Ry     beta= 0.40
     Davidson diagonalization with overlap
     ethr =  3.49E-12,  avg # of iterations =  5.3

     negative rho (up, down):  0.000E+00 1.369E-04

     total cpu time spent up to now is     1584.3 secs

     total energy              =   -2748.42222359 Ry
     estimated scf accuracy    <          4.1E-09 Ry

     total magnetization       =     3.02 Bohr mag/cell
     absolute magnetization    =     3.67 Bohr mag/cell

     iteration # 84     ecut=    60.00 Ry     beta= 0.40
     Davidson diagonalization with overlap
     ethr =  2.87E-12,  avg # of iterations =  5.0

     negative rho (up, down):  0.000E+00 1.369E-04

     total cpu time spent up to now is     1607.5 secs

     total energy              =   -2748.42222361 Ry
     estimated scf accuracy    <          3.1E-09 Ry

     total magnetization       =     3.02 Bohr mag/cell
     absolute magnetization    =     3.67 Bohr mag/cell

     iteration # 85     ecut=    60.00 Ry     beta= 0.40
     Davidson diagonalization with overlap
     ethr =  2.22E-12,  avg # of iterations =  4.8

     negative rho (up, down):  0.000E+00 1.369E-04

     total cpu time spent up to now is     1630.8 secs

     total energy              =   -2748.42222361 Ry
     estimated scf accuracy    <          3.6E-09 Ry

     total magnetization       =     3.01 Bohr mag/cell
     absolute magnetization    =     3.67 Bohr mag/cell

     iteration # 86     ecut=    60.00 Ry     beta= 0.40
     Davidson diagonalization with overlap
     ethr =  2.22E-12,  avg # of iterations =  4.3

     negative rho (up, down):  0.000E+00 1.369E-04

     total cpu time spent up to now is     1652.9 secs

     total energy              =   -2748.42222364 Ry
     estimated scf accuracy    <          2.2E-09 Ry

     total magnetization       =     3.01 Bohr mag/cell
     absolute magnetization    =     3.67 Bohr mag/cell

     iteration # 87     ecut=    60.00 Ry     beta= 0.40
     Davidson diagonalization with overlap
     ethr =  1.57E-12,  avg # of iterations =  2.2

     negative rho (up, down):  0.000E+00 1.369E-04

     total cpu time spent up to now is     1668.4 secs

     total energy              =   -2748.42222363 Ry
     estimated scf accuracy    <          3.0E-09 Ry

     total magnetization       =     3.01 Bohr mag/cell
     absolute magnetization    =     3.67 Bohr mag/cell

     iteration # 88     ecut=    60.00 Ry     beta= 0.40
     Davidson diagonalization with overlap
     ethr =  1.57E-12,  avg # of iterations =  3.6

     negative rho (up, down):  0.000E+00 1.369E-04

     total cpu time spent up to now is     1688.7 secs

     total energy              =   -2748.42222364 Ry
     estimated scf accuracy    <          1.3E-09 Ry

     total magnetization       =     3.01 Bohr mag/cell
     absolute magnetization    =     3.67 Bohr mag/cell

     iteration # 89     ecut=    60.00 Ry     beta= 0.40
     Davidson diagonalization with overlap
     ethr =  9.31E-13,  avg # of iterations =  3.6

     negative rho (up, down):  0.000E+00 1.369E-04
 
     Magnetic moment per site  (integrated on atomic sphere of radius R)
     atom   1 (R=0.210)  charge= 10.1464  magn=  0.0923
     atom   2 (R=0.210)  charge=  0.6383  magn= -0.0050
     atom   3 (R=0.210)  charge=  0.6524  magn=  0.0034
     atom   4 (R=0.210)  charge=  0.6348  magn= -0.0053
     atom   5 (R=0.210)  charge=  0.6383  magn= -0.0050
     atom   6 (R=0.210)  charge=  0.6348  magn= -0.0053
     atom   7 (R=0.210)  charge=  0.6154  magn=  0.0012
     atom   8 (R=0.210)  charge=  0.6180  magn=  0.0020
     atom   9 (R=0.210)  charge=  0.6154  magn=  0.0012
     atom  10 (R=0.210)  charge=  0.6477  magn= -0.0129
     atom  11 (R=0.210)  charge=  0.6477  magn= -0.0129
     atom  12 (R=0.210)  charge=  0.6180  magn=  0.0020
     atom  13 (R=0.206)  charge= 14.5919  magn=  2.7837
     atom  14 (R=0.206)  charge= 17.0954  magn= -0.0097
     atom  15 (R=0.206)  charge= 17.0954  magn= -0.0097
     atom  16 (R=0.206)  charge= 17.1214  magn=  0.1088
     atom  17 (R=0.206)  charge= 17.1051  magn= -0.0182
     atom  18 (R=0.206)  charge= 17.1051  magn= -0.0182

     total cpu time spent up to now is     1708.1 secs

     End of self-consistent calculation

     =================== HUBBARD OCCUPATIONS ===================
     ------------------------ ATOM   13 ------------------------
     Tr[ns( 13)] (up, down, total) =   4.78899  1.86378  6.65277
     Atomic magnetic moment for atom  13 =   2.92520
     SPIN  1
     eigenvalues:
       0.925  0.950  0.970  0.971  0.972
     eigenvectors (columns):
      -0.478 -0.878  0.000  0.000  0.013
      -0.003  0.009 -0.468  0.728  0.500
      -0.006  0.016  0.270 -0.421  0.866
      -0.439  0.239  0.728  0.468 -0.007
       0.761 -0.414  0.421  0.270  0.013
     occupation matrix ns (before diag.):
       0.944  0.000  0.000 -0.005  0.009
       0.000  0.971  0.000  0.000  0.000
       0.000  0.000  0.972 -0.000  0.000
      -0.005  0.000 -0.000  0.961  0.017
       0.009  0.000  0.000  0.017  0.941
     SPIN  2
     eigenvalues:
       0.042  0.047  0.048  0.826  0.901
     eigenvectors (columns):
       0.000 -0.001 -0.000 -0.546  0.838
      -0.847 -0.500  0.180 -0.003 -0.003
       0.489 -0.866 -0.104 -0.005 -0.005
       0.180  0.004  0.847 -0.419 -0.273
       0.104 -0.007  0.489  0.725  0.473
     occupation matrix ns (before diag.):
       0.879 -0.001 -0.001 -0.017  0.030
      -0.001  0.043  0.002  0.002 -0.002
      -0.001  0.002  0.046  0.002 -0.005
      -0.017  0.002  0.002  0.248 -0.347
       0.030 -0.002 -0.005 -0.347  0.648
     ------------------------ ATOM   14 ------------------------
     Tr[ns( 14)] (up, down, total) =   4.52061  4.53183  9.05244
     Atomic magnetic moment for atom  14 =  -0.01121
     SPIN  1
     eigenvalues:
       0.838  0.907  0.914  0.926  0.936
     eigenvectors (columns):
      -0.667  0.700  0.160  0.199  0.014
      -0.061 -0.208 -0.410  0.838  0.286
       0.134  0.395 -0.729 -0.381  0.388
       0.729  0.554  0.220  0.326 -0.081
       0.040 -0.067  0.476 -0.079  0.872
     occupation matrix ns (before diag.):
       0.877  0.000  0.004  0.035  0.002
       0.000  0.923 -0.000  0.007  0.005
       0.004 -0.000  0.916 -0.011  0.008
       0.035  0.007 -0.011  0.873 -0.004
       0.002  0.005  0.008 -0.004  0.930
     SPIN  2
     eigenvalues:
       0.851  0.907  0.914  0.925  0.935
     eigenvectors (columns):
       0.655  0.707  0.185  0.191  0.022
       0.072 -0.176 -0.428  0.845 -0.258
      -0.161  0.444 -0.701 -0.368 -0.388
      -0.734  0.518  0.260  0.336  0.109
      -0.026 -0.062  0.472 -0.039 -0.878
     occupation matrix ns (before diag.):
       0.884 -0.000  0.004  0.029  0.001
      -0.000  0.923 -0.000  0.007  0.005
       0.004 -0.000  0.916 -0.011  0.007
       0.029  0.007 -0.011  0.880 -0.003
       0.001  0.005  0.007 -0.003  0.930
     ------------------------ ATOM   15 ------------------------
     Tr[ns( 15)] (up, down, total) =   4.52061  4.53183  9.05244
     Atomic magnetic moment for atom  15 =  -0.01121
     SPIN  1
     eigenvalues:
       0.838  0.907  0.914  0.926  0.936
     eigenvectors (columns):
      -0.667 -0.700  0.160 -0.199 -0.014
       0.146 -0.446 -0.426  0.749 -0.192
       0.014 -0.017 -0.719 -0.536 -0.442
      -0.399  0.219 -0.523  0.095  0.715
      -0.612  0.513  0.048  0.322 -0.507
     occupation matrix ns (before diag.):
       0.877  0.004  0.002 -0.020 -0.029
       0.004  0.918 -0.003  0.003  0.013
       0.002 -0.003  0.921 -0.007  0.004
      -0.020  0.003 -0.007  0.913 -0.027
      -0.029  0.013  0.004 -0.027  0.891
     SPIN  2
     eigenvalues:
       0.851  0.907  0.914  0.925  0.935
     eigenvectors (columns):
      -0.655  0.707  0.185 -0.191 -0.022
       0.175  0.472 -0.393  0.741  0.207
       0.018  0.069 -0.721 -0.548  0.417
      -0.389 -0.205 -0.539  0.134 -0.706
      -0.623 -0.480  0.011  0.310  0.534
     occupation matrix ns (before diag.):
       0.884  0.003  0.001 -0.015 -0.024
       0.003  0.917 -0.003  0.003  0.013
       0.001 -0.003  0.921 -0.007  0.004
      -0.015  0.003 -0.007  0.915 -0.024
      -0.024  0.013  0.004 -0.024  0.895
     ------------------------ ATOM   16 ------------------------
     Tr[ns( 16)] (up, down, total) =   4.61521  4.48959  9.10479
     Atomic magnetic moment for atom  16 =   0.12562
     SPIN  1
     eigenvalues:
       0.889  0.924  0.929  0.936  0.937
     eigenvectors (columns):
      -0.474 -0.878  0.000 -0.000 -0.063
       0.005  0.033  0.865 -0.035 -0.499
       0.009  0.057 -0.500  0.020 -0.864
      -0.440  0.237 -0.035 -0.865  0.011
       0.763 -0.410 -0.020 -0.500 -0.019
     occupation matrix ns (before diag.):
       0.916  0.000  0.001 -0.007  0.013
       0.000  0.931  0.003  0.000  0.000
       0.001  0.003  0.935 -0.000 -0.000
      -0.007  0.000 -0.000  0.926  0.017
       0.013  0.000 -0.000  0.017  0.907
     SPIN  2
     eigenvalues:
       0.879  0.879  0.887  0.919  0.925
     eigenvectors (columns):
       0.000 -0.496  0.026 -0.868 -0.000
       0.010  0.071  0.494 -0.026 -0.866
      -0.006  0.123  0.856 -0.045  0.500
      -0.866 -0.428  0.074  0.247 -0.010
      -0.500  0.742 -0.129 -0.427 -0.006
     occupation matrix ns (before diag.):
       0.909  0.001  0.002 -0.008  0.015
       0.001  0.915 -0.016  0.000  0.000
       0.002 -0.016  0.897 -0.000 -0.000
      -0.008  0.000 -0.000  0.882 -0.004
       0.015  0.000 -0.000 -0.004  0.887
     ------------------------ ATOM   17 ------------------------
     Tr[ns( 17)] (up, down, total) =   4.51685  4.53740  9.05425
     Atomic magnetic moment for atom  17 =  -0.02055
     SPIN  1
     eigenvalues:
       0.840  0.906  0.910  0.926  0.935
     eigenvectors (columns):
       0.669 -0.639 -0.261  0.271 -0.040
      -0.031 -0.179 -0.508 -0.796  0.275
      -0.143 -0.547  0.618 -0.397 -0.376
      -0.728 -0.477 -0.330  0.362  0.046
       0.017 -0.181  0.427  0.072  0.883
     occupation matrix ns (before diag.):
       0.878 -0.003  0.004  0.034 -0.002
      -0.003  0.922  0.002 -0.006  0.005
       0.004  0.002  0.913 -0.011 -0.009
       0.034 -0.006 -0.011  0.874  0.002
      -0.002  0.005 -0.009  0.002  0.929
     SPIN  2
     eigenvalues:
       0.855  0.908  0.912  0.927  0.935
     eigenvectors (columns):
       0.653 -0.706 -0.103  0.254 -0.003
      -0.033 -0.258 -0.460 -0.815  0.236
      -0.151 -0.386  0.728 -0.393 -0.380
      -0.741 -0.533 -0.211  0.340  0.081
       0.014 -0.051  0.451  0.018  0.891
     occupation matrix ns (before diag.):
       0.887 -0.003  0.003  0.027 -0.001
      -0.003  0.923  0.002 -0.006  0.005
       0.003  0.002  0.916 -0.010 -0.008
       0.027 -0.006 -0.010  0.882  0.002
      -0.001  0.005 -0.008  0.002  0.930
     ------------------------ ATOM   18 ------------------------
     Tr[ns( 18)] (up, down, total) =   4.51685  4.53740  9.05425
     Atomic magnetic moment for atom  18 =  -0.02055
     SPIN  1
     eigenvalues:
       0.840  0.906  0.910  0.926  0.935
     eigenvectors (columns):
      -0.669  0.639 -0.261  0.271 -0.040
       0.108  0.384  0.789  0.054 -0.463
       0.098  0.428 -0.131 -0.887  0.050
      -0.350 -0.395 -0.205 -0.244 -0.787
      -0.639 -0.322  0.500 -0.277  0.401
     occupation matrix ns (before diag.):
       0.878  0.005 -0.000 -0.016 -0.031
       0.005  0.914 -0.003  0.012  0.000
      -0.000 -0.003  0.921  0.006  0.009
      -0.016  0.012  0.006  0.917 -0.023
      -0.031  0.000  0.009 -0.023  0.886
     SPIN  2
     eigenvalues:
       0.855  0.908  0.912  0.927  0.935
     eigenvectors (columns):
      -0.653  0.706 -0.103  0.254 -0.003
       0.114  0.205  0.860  0.068 -0.447
       0.104  0.416 -0.035 -0.903  0.014
      -0.359 -0.311 -0.286 -0.186 -0.812
      -0.649 -0.436  0.408 -0.286  0.375
     occupation matrix ns (before diag.):
       0.887  0.004 -0.001 -0.013 -0.024
       0.004  0.916 -0.002  0.011  0.000
      -0.001 -0.002  0.923  0.005  0.008
      -0.013  0.011  0.005  0.920 -0.020
      -0.024  0.000  0.008 -0.020  0.892

     Number of occupied Hubbard levels =   51.9709

     Number of k-points >= 100: set verbosity='high' to print the bands.

     the Fermi energy is     7.5205 ev

!    total energy              =   -2748.42222365 Ry
     estimated scf accuracy    <          8.4E-10 Ry
     smearing contrib. (-TS)   =      -0.00037927 Ry
     internal energy E=F+TS    =   -2748.42184438 Ry

     The total energy is F=E-TS. E is the sum of the following terms:
     one-electron contribution =   -2133.82683658 Ry
     hartree contribution      =    1120.72833000 Ry
     xc contribution           =    -260.87837997 Ry
     ewald contribution        =    -846.57789958 Ry
     DFT-D3 Dispersion         =      -0.35837032 Ry
     Hubbard energy            =       1.47144453 Ry
     one-center paw contrib.   =    -628.98013247 Ry

     total magnetization       =     3.01 Bohr mag/cell
     absolute magnetization    =     3.67 Bohr mag/cell

     convergence has been achieved in  89 iterations

     negative rho (up, down):  0.000E+00 1.369E-04
     force_hub    :     65.12s CPU     65.32s WALL (       1 calls)
     dndtau       :     61.16s CPU     61.34s WALL (    8424 calls)
     dprojdtau    :     31.98s CPU     32.04s WALL (   50544 calls)
     calc_doverla :     19.64s CPU     19.70s WALL (    8424 calls)
     matel_dSdtau :     22.75s CPU     22.86s WALL (   16848 calls)

     Forces acting on atoms (cartesian axes, Ry/au):

     atom    1 type  1   force =    -0.00284872    0.00164471    0.00000000
     atom    2 type  2   force =    -0.00965534   -0.00720700    0.01426702
     atom    3 type  2   force =    -0.00501064    0.00289290    0.00000000
     atom    4 type  2   force =     0.00923783    0.00697075    0.01771996
     atom    5 type  2   force =     0.00141377    0.01196527   -0.01426702
     atom    6 type  2   force =    -0.00141794   -0.01148557   -0.01771996
     atom    7 type  2   force =    -0.00080282   -0.00154950    0.01213555
     atom    8 type  2   force =     0.00029853    0.00046409    0.00219033
     atom    9 type  2   force =     0.00094050    0.00147002   -0.01213555
     atom   10 type  2   force =     0.00052725   -0.00034169    0.01006177
     atom   11 type  2   force =     0.00055954   -0.00028577   -0.01006177
     atom   12 type  2   force =    -0.00025265   -0.00049058   -0.00219033
     atom   13 type  3   force =    -0.00039153    0.00022605    0.00000000
     atom   14 type  4   force =    -0.00108370   -0.00266792   -0.00708712
     atom   15 type  4   force =     0.00176864    0.00227247    0.00708712
     atom   16 type  4   force =     0.00369349   -0.00213244    0.00000000
     atom   17 type  4   force =     0.00064982   -0.00236604   -0.01172415
     atom   18 type  4   force =     0.00237396    0.00062026    0.01172415

     Total force =     0.050735     Total SCF correction =     0.000033


     Computing stress (Cartesian axis) and pressure


     negative rho (up, down):  0.000E+00 1.369E-04
     stres_hub    :     94.08s CPU     94.43s WALL (       1 calls)
     dprojdepsilo :     86.31s CPU     86.63s WALL (    1404 calls)
     dprojdeps1   :      9.98s CPU      9.98s WALL (    1404 calls)
     dprojdeps2   :     47.09s CPU     47.28s WALL (    1404 calls)
     dprojdeps3   :     29.23s CPU     29.37s WALL (    1404 calls)
          total   stress  (Ry/bohr**3)                   (kbar)     P=      -14.89
  -0.00005456  -0.00003101  -0.00001566           -8.03       -4.56       -2.30
  -0.00003101  -0.00009037  -0.00002713           -4.56      -13.29       -3.99
  -0.00001566  -0.00002713  -0.00015876           -2.30       -3.99      -23.35


     Writing all to output data dir ./out/mg2ni_NbFe.save/ :
     XML data file, charge density, pseudopotentials, collected wavefunctions
 
     init_run     :     11.51s CPU     12.85s WALL (       1 calls)
     electrons    :   1691.31s CPU   1694.95s WALL (       1 calls)
     forces       :     68.16s CPU     68.36s WALL (       1 calls)
     force_dftd3  :      0.21s CPU      0.21s WALL (       1 calls)
     stress       :     99.85s CPU    100.21s WALL (       1 calls)
     stres_dftd3  :      0.22s CPU      0.22s WALL (       1 calls)

     Called by init_run:
     wfcinit      :      9.69s CPU     10.84s WALL (       1 calls)
     potinit      :      0.67s CPU      0.71s WALL (       1 calls)
     hinit0       :      0.56s CPU      0.58s WALL (       1 calls)

     Called by electrons:
     c_bands      :   1407.42s CPU   1410.66s WALL (      89 calls)
     sum_band     :    237.99s CPU    238.26s WALL (      89 calls)
     v_of_rho     :      1.02s CPU      1.05s WALL (      90 calls)
     newd         :     30.72s CPU     30.78s WALL (      90 calls)
     PAW_pot      :      9.87s CPU      9.88s WALL (      90 calls)
     mix_rho      :      2.49s CPU      2.53s WALL (      89 calls)
     energy_dftd3 :      0.23s CPU      0.23s WALL (       1 calls)

     Called by c_bands:
     init_us_2    :     13.10s CPU     13.12s WALL (   28704 calls)
     cegterg      :   1327.96s CPU   1330.87s WALL (   13884 calls)

     Called by *egterg:
     cdiaghg      :    326.22s CPU    345.88s WALL (   60099 calls)
                                      345.72s GPU  (   60099 calls)
     h_psi        :    486.28s CPU    488.52s WALL (   59787 calls)
     s_psi        :     72.90s CPU     73.15s WALL (   60567 calls)
     g_psi        :      1.80s CPU      1.80s WALL (   45747 calls)

     Called by h_psi:
     h_psi:calbec :      0.94s CPU      0.95s WALL (   59787 calls)
     vloc_psi     :    288.57s CPU    290.39s WALL (   59787 calls)
                                      290.24s GPU  (   59787 calls)
     add_vuspsi   :    108.70s CPU    109.26s WALL (   59787 calls)
     vhpsi        :     86.25s CPU     86.36s WALL (   59787 calls)

     General routines
     calbec       :     81.12s CPU     81.28s WALL (  422058 calls)
     fft          :      1.04s CPU      1.30s WALL (    2288 calls)
                                        0.26s GPU  (    2108 calls)
     ffts         :      0.38s CPU      0.39s WALL (     358 calls)
                                        0.01s GPU  (     178 calls)
     fftw         :      3.16s CPU    309.87s WALL (  528678 calls)
                                      308.51s GPU  (  528678 calls)
     interpolate  :      1.58s CPU      1.59s WALL (     180 calls)
 

     Hubbard U routines
     new_ns       :     93.35s CPU     93.39s WALL (      89 calls)
     vhpsi        :     86.25s CPU     86.36s WALL (   59787 calls)
     force_hub    :     65.12s CPU     65.32s WALL (       1 calls)
     stres_hub    :     94.08s CPU     94.43s WALL (       1 calls)
 
     PWSCF        :  31m11.59s CPU  31m18.05s WALL

 
   This run was terminated on:   6:50: 4  22May2026            

=------------------------------------------------------------------------------=
   JOB DONE.
=------------------------------------------------------------------------------=
