
     Program PWSCF v.7.5 starts on 22May2026 at  9:48:55 

     This program is part of the open-source Quantum ESPRESSO suite
     for quantum simulation of materials; please cite
         "P. Giannozzi et al., J. Phys.:Condens. Matter 21 395502 (2009);
         "P. Giannozzi et al., J. Phys.:Condens. Matter 29 465901 (2017);
         "P. Giannozzi et al., J. Chem. Phys. 152 154105 (2020);
          URL http://www.quantum-espresso.org", 
     in publications or presentations arising from this work. More details at
     http://www.quantum-espresso.org/quote

     Serial multi-threaded version, running on    1 processor cores
     14107 MiB available memory on the printing compute node when the environment starts
 
     Reading input from mg2nih4_NbFeMg.in
Warning: card &CELL ignored
Warning: card &FCP ignored
Warning: card &RISM ignored

     Current dimensions of program PWSCF are:
     Max number of different atomic species (ntypx) = 10
     Max number of k-points (npk) =  40000
     Max angular momentum in pseudopotentials (lmaxx) =  4

     File ./out/mg2nih4_NbFeMg.update deleted, as requested

     File ./out/mg2nih4_NbFeMg.bfgs deleted, as requested
     file Nb.pbe-spn-kjpaw_psl.0.3.0.UPF: wavefunction(s)  4S 4P renormalized
     file Fe.pbe-spn-kjpaw_psl.0.2.1.UPF: wavefunction(s)  3D renormalized
     file Mg.pbe-n-kjpaw_psl.0.3.0.UPF: wavefunction(s)  3S renormalized
 
 
     G-vector sticks info
     --------------------
     sticks:   dense  smooth     PW     G-vecs:    dense   smooth      PW
     Sum        6253    3123    899               326697   115555   17991
 
     Using Slab Decomposition
 


     bravais-lattice index     =            0
     lattice parameter (alat)  =      14.8381  a.u.
     unit-cell volume          =    1839.4989 (a.u.)^3
     number of atoms/cell      =           28
     number of atomic types    =            5
     number of electrons       =       129.00
     number of Kohn-Sham states=           78
     kinetic-energy cutoff     =      60.0000  Ry
     charge density cutoff     =     480.0000  Ry
     scf convergence threshold =      1.2E-09
     mixing beta               =       0.4000
     number of iterations used =            8  plain     mixing
     Exchange-correlation= PBE
                           (   1   4   3   4   0   0   0)

     GPU acceleration is ACTIVE.  1 visible GPUs per MPI rank

     Hubbard projectors: ortho-atomic
     Hubbard parameters of DFT+U (Dudarev formulation) in eV:
     U(Fe-3d) =  4.0000
     U(Ni-3d) =  9.0000

     Internal variables: lda_plus_u = T, lda_plus_u_kind = 0

     Internal variables: orbital_resolved = F, hub_pot_fix = F, apply_U =  F

     celldm(1)=  14.838115  celldm(2)=   0.000000  celldm(3)=   0.000000
     celldm(4)=   0.000000  celldm(5)=   0.000000  celldm(6)=   0.000000

     crystal axes: (cart. coord. in units of alat)
               a(1) = (   1.000000   0.000000   0.000000 )  
               a(2) = (  -0.668677   0.743553   0.000000 )  
               a(3) = (  -0.298371   0.132953   0.757271 )  

     reciprocal axes: (cart. coord. in units 2 pi/alat)
               b(1) = (  1.000000  0.899299  0.236120 )  
               b(2) = (  0.000000  1.344893 -0.236120 )  
               b(3) = (  0.000000 -0.000000  1.320532 )  


     PseudoPot. # 1 for Nb read from file:
     ../pseudo/Nb.pbe-spn-kjpaw_psl.0.3.0.UPF
     MD5 check sum: 411d72ad547312f8017e2943ceca08cc
     Pseudo is Projector augmented-wave + core cor, Zval = 13.0
     Generated using "atomic" code by A. Dal Corso  v.5.0.99 svn rev. 10869
     Shape of augmentation charge: PSQ
     Using radial grid of 1227 points,  6 beta functions with: 
                l(1) =   0
                l(2) =   0
                l(3) =   1
                l(4) =   1
                l(5) =   2
                l(6) =   2
     Q(r) pseudized with 0 coefficients 


     PseudoPot. # 2 for Fe read from file:
     ../pseudo/Fe.pbe-spn-kjpaw_psl.0.2.1.UPF
     MD5 check sum: e86618425769142926afa95317d90200
     Pseudo is Projector augmented-wave + core cor, Zval = 16.0
     Generated using "atomic" code by A. Dal Corso  v.5.0.99 svn rev. 10869
     Shape of augmentation charge: PSQ
     Using radial grid of 1191 points,  6 beta functions with: 
                l(1) =   0
                l(2) =   0
                l(3) =   1
                l(4) =   1
                l(5) =   2
                l(6) =   2
     Q(r) pseudized with 0 coefficients 


     PseudoPot. # 3 for Mg read from file:
     ../pseudo/Mg.pbe-n-kjpaw_psl.0.3.0.UPF
     MD5 check sum: 24ecedc7f3e3cbe212e682f4413594e4
     Pseudo is Projector augmented-wave + core cor, Zval =  2.0
     Generated using "atomic" code by A. Dal Corso  v.5.0.99 svn rev. 10869
     Shape of augmentation charge: PSQ
     Using radial grid of 1129 points,  4 beta functions with: 
                l(1) =   0
                l(2) =   0
                l(3) =   1
                l(4) =   1
     Q(r) pseudized with 0 coefficients 


     PseudoPot. # 4 for Ni read from file:
     ../pseudo/ni_pbe_v1.4.uspp.F.UPF
     MD5 check sum: 1ee80287db30b12d2bc1f57a5b5d6409
     Pseudo is Ultrasoft + core correction, Zval = 18.0
     Generated by new atomic code, or converted to UPF format
     Using radial grid of  865 points,  6 beta functions with: 
                l(1) =   0
                l(2) =   0
                l(3) =   1
                l(4) =   1
                l(5) =   2
                l(6) =   2
     Q(r) pseudized with 10 coefficients,  rinner =    0.980   0.980   0.980
                                                       0.980   0.980

     PseudoPot. # 5 for H  read from file:
     ../pseudo/H.pbe-rrkjus_psl.1.0.0.UPF
     MD5 check sum: f52b6d4d1c606e5624b1dc7b2218f220
     Pseudo is Ultrasoft, Zval =  1.0
     Generated using "atomic" code by A. Dal Corso  v.5.1
     Using radial grid of  929 points,  2 beta functions with: 
                l(1) =   0
                l(2) =   0
     Q(r) pseudized with 0 coefficients 


     atomic species   valence    mass     pseudopotential
     Nb               13.00    92.90637     Nb( 1.00)
     Fe               16.00    55.84500     Fe( 1.00)
     Mg                2.00    24.30500     Mg( 1.00)
     Ni               18.00    58.69340     Ni( 1.00)
     H                 1.00     1.00800     H ( 1.00)

     Starting magnetic structure 
     atomic species   magnetization
     Nb              0.000
     Fe              0.125
     Mg              0.000
     Ni              0.000
     H               0.000

     No symmetry found



   Cartesian axes

     site n.     atom                  positions (alat units)
         1        Nb     tau(   1) = (  -0.5449835   0.6998890   0.6954563  )
         2        Fe     tau(   2) = (  -0.4043135   0.6143021   0.3168210  )
         3        Mg     tau(   3) = (   0.4372657   0.2622039   0.4404497  )
         4        Mg     tau(   4) = (   0.5779358   0.1766170   0.0618144  )
         5        Mg     tau(   5) = (   0.0996665   0.8255868   0.5679530  )
         6        Mg     tau(   6) = (  -0.0667142   0.0509192   0.1893177  )
         7        Mg     tau(   7) = (  -0.0665313   0.4526072   0.5679530  )
         8        Mg     tau(   8) = (   0.0994835   0.4238988   0.1893177  )
         9        Ni     tau(   9) = (  -0.2193840   0.7839183   0.6960861  )
        10        Ni     tau(  10) = (  -0.2490730   0.3160130   0.3174507  )
        11        Ni     tau(  11) = (   0.2820252   0.5604930   0.4398200  )
        12        Ni     tau(  12) = (   0.2523362   0.0925877   0.0611846  )
        13        H      tau(  13) = (  -0.0640921   0.6609375   0.7172772  )
        14        H      tau(  14) = (  -0.0537902   0.2827795   0.3386418  )
        15        H      tau(  15) = (   0.0867424   0.5937265   0.4186289  )
        16        H      tau(  16) = (   0.0970443   0.2155685   0.0399935  )
        17        H      tau(  17) = (   0.6618369   0.1393567   0.3221854  )
        18        H      tau(  18) = (   0.5210736   0.2247341   0.7008207  )
        19        H      tau(  19) = (  -0.4881213   0.6517719   0.0564500  )
        20        H      tau(  20) = (  -0.6288847   0.7371494   0.4350853  )
        21        H      tau(  21) = (  -0.3270821   0.7653669   0.5274469  )
        22        H      tau(  22) = (  -0.3072943   0.4084971   0.1488116  )
        23        H      tau(  23) = (   0.3402465   0.4680089   0.6084592  )
        24        H      tau(  24) = (   0.3600343   0.1111391   0.2298238  )
        25        H      tau(  25) = (   0.0754276   0.2497323   0.6631919  )
        26        H      tau(  26) = (   0.3452564   0.4540025   0.2845565  )
        27        H      tau(  27) = (  -0.3123042   0.4225035   0.4727142  )
        28        H      tau(  28) = (  -0.0424754   0.6267738   0.0940789  )

     --------------------------------------------
     DFT-D3 Dispersion Correction (3-body terms):
     --------------------------------------------
       Reference C6 values for interpolation: 

         atom   Coordination number   C6
         H          0.912             6.05
         H          0.000            15.18
         Mg         0.000          1366.75
         Mg         0.963           902.54
         Mg         1.950           351.12
         Fe         0.000           982.67
         Fe         1.648           409.99
         Fe         9.138           219.01
         Ni         0.000          1149.49
         Ni         1.794           356.66
         Ni         6.546           257.56
         Ni         6.292           283.75
         Nb         0.000          2950.50
         Nb         1.954          1161.16
         Nb         2.922           857.79

       Values used:

         atom   Coordination number  R0_AB[au]  C6      C8
         Nb        10.065            3.647    857.79 111659.18
         Fe         4.073            3.252    409.99  38353.44
         Mg         8.277            3.292    351.12  31436.69
         Mg         8.858            3.292    351.12  31436.69
         Mg         9.391            3.292    351.12  31436.69
         Mg         9.024            3.292    351.12  31436.69
         Mg         8.670            3.292    351.12  31436.69
         Mg         8.885            3.292    351.12  31436.69
         Ni         9.200            3.162    257.65  21589.17
         Ni         8.946            3.162    257.71  21594.00
         Ni         8.932            3.162    257.71  21594.33
         Ni         8.952            3.162    257.71  21593.85
         H          2.172            2.062      6.05     73.18
         H          2.172            2.062      6.05     73.18
         H          2.172            2.062      6.05     73.18
         H          2.172            2.062      6.05     73.18
         H          2.023            2.062      6.05     73.18
         H          2.024            2.062      6.05     73.18
         H          1.882            2.062      6.05     73.18
         H          1.950            2.062      6.05     73.18
         H          1.798            2.062      6.05     73.18
         H          1.938            2.062      6.05     73.18
         H          2.170            2.062      6.05     73.18
         H          1.672            2.062      6.05     73.19
         H          2.209            2.062      6.05     73.18
         H          1.986            2.062      6.05     73.18
         H          1.689            2.062      6.05     73.19
         H          2.275            2.062      6.05     73.18

         Molecular C6 ( Ry / a.u.^6 ) =     69525.71


     number of k points=   196  Marzari-Vanderbilt smearing, width (Ry)=  0.0100

     Number of k-points >= 100: set verbosity='high' to print them.

     Dense  grid:   326697 G-vectors     FFT dimensions: ( 108, 108,  90)

     Smooth grid:   115555 G-vectors     FFT dimensions: (  75,  75,  64)

     Estimated max dynamical RAM per process >      10.27 GB

     Check: negative core charge=   -0.000010
     Generating pointlists ...
     new r_m :   0.1088 (alat units)  1.6142 (a.u.) for type    1
     new r_m :   0.1088 (alat units)  1.6142 (a.u.) for type    2
     new r_m :   0.1057 (alat units)  1.5689 (a.u.) for type    3
     new r_m :   0.0816 (alat units)  1.2113 (a.u.) for type    4
     new r_m :   0.0816 (alat units)  1.2113 (a.u.) for type    5

     Initial potential from superposition of free atoms

     starting charge     120.9917, renormalised to     129.0000

     STARTING HUBBARD OCCUPATIONS:

     =================== HUBBARD OCCUPATIONS ===================
     ------------------------ ATOM    2 ------------------------
     Tr[ns(  2)] (up, down, total) =   5.00000  1.00000  6.00000
     Atomic magnetic moment for atom   2 =   4.00000
     SPIN  1
     eigenvalues:
       1.000  1.000  1.000  1.000  1.000
     eigenvectors (columns):
       1.000  0.000  0.000  0.000  0.000
       0.000  1.000  0.000  0.000  0.000
       0.000  0.000  1.000  0.000  0.000
       0.000  0.000  0.000  1.000  0.000
       0.000  0.000  0.000  0.000  1.000
     occupation matrix ns (before diag.):
       1.000  0.000  0.000  0.000  0.000
       0.000  1.000  0.000  0.000  0.000
       0.000  0.000  1.000  0.000  0.000
       0.000  0.000  0.000  1.000  0.000
       0.000  0.000  0.000  0.000  1.000
     SPIN  2
     eigenvalues:
       0.200  0.200  0.200  0.200  0.200
     eigenvectors (columns):
       1.000  0.000  0.000  0.000  0.000
       0.000  1.000  0.000  0.000  0.000
       0.000  0.000  1.000  0.000  0.000
       0.000  0.000  0.000  1.000  0.000
       0.000  0.000  0.000  0.000  1.000
     occupation matrix ns (before diag.):
       0.200  0.000  0.000  0.000  0.000
       0.000  0.200  0.000  0.000  0.000
       0.000  0.000  0.200  0.000  0.000
       0.000  0.000  0.000  0.200  0.000
       0.000  0.000  0.000  0.000  0.200
     ------------------------ ATOM    9 ------------------------
     Tr[ns(  9)] (up, down, total) =   4.00000  4.00000  8.00000
     Atomic magnetic moment for atom   9 =   0.00000
     SPIN  1
     eigenvalues:
       0.800  0.800  0.800  0.800  0.800
     eigenvectors (columns):
       1.000  0.000  0.000  0.000  0.000
       0.000  1.000  0.000  0.000  0.000
       0.000  0.000  1.000  0.000  0.000
       0.000  0.000  0.000  1.000  0.000
       0.000  0.000  0.000  0.000  1.000
     occupation matrix ns (before diag.):
       0.800  0.000  0.000  0.000  0.000
       0.000  0.800  0.000  0.000  0.000
       0.000  0.000  0.800  0.000  0.000
       0.000  0.000  0.000  0.800  0.000
       0.000  0.000  0.000  0.000  0.800
     SPIN  2
     eigenvalues:
       0.800  0.800  0.800  0.800  0.800
     eigenvectors (columns):
       1.000  0.000  0.000  0.000  0.000
       0.000  1.000  0.000  0.000  0.000
       0.000  0.000  1.000  0.000  0.000
       0.000  0.000  0.000  1.000  0.000
       0.000  0.000  0.000  0.000  1.000
     occupation matrix ns (before diag.):
       0.800  0.000  0.000  0.000  0.000
       0.000  0.800  0.000  0.000  0.000
       0.000  0.000  0.800  0.000  0.000
       0.000  0.000  0.000  0.800  0.000
       0.000  0.000  0.000  0.000  0.800
     ------------------------ ATOM   10 ------------------------
     Tr[ns( 10)] (up, down, total) =   4.00000  4.00000  8.00000
     Atomic magnetic moment for atom  10 =   0.00000
     SPIN  1
     eigenvalues:
       0.800  0.800  0.800  0.800  0.800
     eigenvectors (columns):
       1.000  0.000  0.000  0.000  0.000
       0.000  1.000  0.000  0.000  0.000
       0.000  0.000  1.000  0.000  0.000
       0.000  0.000  0.000  1.000  0.000
       0.000  0.000  0.000  0.000  1.000
     occupation matrix ns (before diag.):
       0.800  0.000  0.000  0.000  0.000
       0.000  0.800  0.000  0.000  0.000
       0.000  0.000  0.800  0.000  0.000
       0.000  0.000  0.000  0.800  0.000
       0.000  0.000  0.000  0.000  0.800
     SPIN  2
     eigenvalues:
       0.800  0.800  0.800  0.800  0.800
     eigenvectors (columns):
       1.000  0.000  0.000  0.000  0.000
       0.000  1.000  0.000  0.000  0.000
       0.000  0.000  1.000  0.000  0.000
       0.000  0.000  0.000  1.000  0.000
       0.000  0.000  0.000  0.000  1.000
     occupation matrix ns (before diag.):
       0.800  0.000  0.000  0.000  0.000
       0.000  0.800  0.000  0.000  0.000
       0.000  0.000  0.800  0.000  0.000
       0.000  0.000  0.000  0.800  0.000
       0.000  0.000  0.000  0.000  0.800
     ------------------------ ATOM   11 ------------------------
     Tr[ns( 11)] (up, down, total) =   4.00000  4.00000  8.00000
     Atomic magnetic moment for atom  11 =   0.00000
     SPIN  1
     eigenvalues:
       0.800  0.800  0.800  0.800  0.800
     eigenvectors (columns):
       1.000  0.000  0.000  0.000  0.000
       0.000  1.000  0.000  0.000  0.000
       0.000  0.000  1.000  0.000  0.000
       0.000  0.000  0.000  1.000  0.000
       0.000  0.000  0.000  0.000  1.000
     occupation matrix ns (before diag.):
       0.800  0.000  0.000  0.000  0.000
       0.000  0.800  0.000  0.000  0.000
       0.000  0.000  0.800  0.000  0.000
       0.000  0.000  0.000  0.800  0.000
       0.000  0.000  0.000  0.000  0.800
     SPIN  2
     eigenvalues:
       0.800  0.800  0.800  0.800  0.800
     eigenvectors (columns):
       1.000  0.000  0.000  0.000  0.000
       0.000  1.000  0.000  0.000  0.000
       0.000  0.000  1.000  0.000  0.000
       0.000  0.000  0.000  1.000  0.000
       0.000  0.000  0.000  0.000  1.000
     occupation matrix ns (before diag.):
       0.800  0.000  0.000  0.000  0.000
       0.000  0.800  0.000  0.000  0.000
       0.000  0.000  0.800  0.000  0.000
       0.000  0.000  0.000  0.800  0.000
       0.000  0.000  0.000  0.000  0.800
     ------------------------ ATOM   12 ------------------------
     Tr[ns( 12)] (up, down, total) =   4.00000  4.00000  8.00000
     Atomic magnetic moment for atom  12 =   0.00000
     SPIN  1
     eigenvalues:
       0.800  0.800  0.800  0.800  0.800
     eigenvectors (columns):
       1.000  0.000  0.000  0.000  0.000
       0.000  1.000  0.000  0.000  0.000
       0.000  0.000  1.000  0.000  0.000
       0.000  0.000  0.000  1.000  0.000
       0.000  0.000  0.000  0.000  1.000
     occupation matrix ns (before diag.):
       0.800  0.000  0.000  0.000  0.000
       0.000  0.800  0.000  0.000  0.000
       0.000  0.000  0.800  0.000  0.000
       0.000  0.000  0.000  0.800  0.000
       0.000  0.000  0.000  0.000  0.800
     SPIN  2
     eigenvalues:
       0.800  0.800  0.800  0.800  0.800
     eigenvectors (columns):
       1.000  0.000  0.000  0.000  0.000
       0.000  1.000  0.000  0.000  0.000
       0.000  0.000  1.000  0.000  0.000
       0.000  0.000  0.000  1.000  0.000
       0.000  0.000  0.000  0.000  1.000
     occupation matrix ns (before diag.):
       0.800  0.000  0.000  0.000  0.000
       0.000  0.800  0.000  0.000  0.000
       0.000  0.000  0.800  0.000  0.000
       0.000  0.000  0.000  0.800  0.000
       0.000  0.000  0.000  0.000  0.800

     Number of occupied Hubbard levels =   38.0000

     Atomic wfc used for Hubbard projectors are orthogonalized

     Starting wfcs are  115 randomized atomic wfcs

     total cpu time spent up to now is       24.6 secs

     Self-consistent Calculation

     iteration #  1     ecut=    60.00 Ry     beta= 0.40
     Davidson diagonalization with overlap
     ethr =  1.00E-02,  avg # of iterations =  4.8

     =================== HUBBARD OCCUPATIONS ===================
     ------------------------ ATOM    2 ------------------------
     Tr[ns(  2)] (up, down, total) =   0.33298  0.11970  0.45268
     Atomic magnetic moment for atom   2 =   0.21328
     SPIN  1
     eigenvalues:
       0.045  0.048  0.058  0.086  0.096
     eigenvectors (columns):
       0.532  0.359  0.324  0.630  0.295
       0.142 -0.863 -0.009  0.163  0.456
      -0.524  0.054 -0.519  0.673  0.014
       0.185  0.313 -0.578 -0.341  0.646
      -0.623  0.157  0.540 -0.092  0.535
     occupation matrix ns (before diag.):
       0.067  0.010  0.015 -0.001  0.008
       0.010  0.059  0.005  0.012  0.011
       0.015  0.005  0.067 -0.005 -0.006
      -0.001  0.012 -0.005  0.076  0.015
       0.008  0.011 -0.006  0.015  0.064
     SPIN  2
     eigenvalues:
       0.018  0.020  0.022  0.028  0.032
     eigenvectors (columns):
      -0.212  0.649  0.281  0.650  0.180
      -0.711 -0.396 -0.279  0.149  0.487
       0.117 -0.640  0.470  0.543 -0.246
       0.139 -0.052  0.654 -0.364  0.646
       0.646 -0.095 -0.441  0.358  0.502
     occupation matrix ns (before diag.):
       0.024  0.002  0.003 -0.000  0.003
       0.002  0.022 -0.001  0.003  0.004
       0.003 -0.001  0.023 -0.003 -0.001
      -0.000  0.003 -0.003  0.027  0.002
       0.003  0.004 -0.001  0.002  0.024
     ------------------------ ATOM    9 ------------------------
     Tr[ns(  9)] (up, down, total) =   1.82669  1.82978  3.65647
     Atomic magnetic moment for atom   9 =  -0.00309
     SPIN  1
     eigenvalues:
       0.300  0.313  0.323  0.412  0.479
     eigenvectors (columns):
      -0.041 -0.212  0.663 -0.124 -0.705
      -0.798 -0.477 -0.299  0.177 -0.121
      -0.147 -0.016 -0.168 -0.974  0.026
      -0.424  0.129  0.657 -0.035  0.610
       0.400 -0.843  0.106 -0.055  0.340
     occupation matrix ns (before diag.):
       0.401  0.010  0.008 -0.066 -0.038
       0.010  0.311 -0.019 -0.019 -0.004
       0.008 -0.019  0.407  0.004  0.007
      -0.066 -0.019  0.004  0.377  0.037
      -0.038 -0.004  0.007  0.037  0.330
     SPIN  2
     eigenvalues:
       0.302  0.316  0.321  0.414  0.476
     eigenvectors (columns):
      -0.115 -0.009  0.689 -0.103 -0.708
      -0.825  0.480 -0.227  0.152 -0.115
      -0.118  0.051 -0.136 -0.982  0.028
      -0.448 -0.359  0.544 -0.023  0.611
       0.301  0.798  0.398 -0.040  0.335
     occupation matrix ns (before diag.):
       0.400  0.009  0.006 -0.068 -0.036
       0.009  0.311 -0.016 -0.017 -0.004
       0.006 -0.016  0.411  0.004  0.006
      -0.068 -0.017  0.004  0.375  0.036
      -0.036 -0.004  0.006  0.036  0.334
     ------------------------ ATOM   10 ------------------------
     Tr[ns( 10)] (up, down, total) =   1.69653  1.70299  3.39952
     Atomic magnetic moment for atom  10 =  -0.00646
     SPIN  1
     eigenvalues:
       0.282  0.286  0.302  0.382  0.445
     eigenvectors (columns):
      -0.124  0.118 -0.641  0.043  0.747
      -0.273  0.445  0.069 -0.850 -0.007
       0.520 -0.613 -0.301 -0.511 -0.046
      -0.544 -0.606  0.426 -0.111  0.377
       0.586  0.213  0.559 -0.036  0.545
     occupation matrix ns (before diag.):
       0.381 -0.005 -0.004  0.040  0.059
      -0.005  0.355  0.042  0.009  0.004
      -0.004  0.042  0.312  0.002 -0.006
       0.040  0.009  0.002  0.311  0.038
       0.059  0.004 -0.006  0.038  0.337
     SPIN  2
     eigenvalues:
       0.281  0.289  0.304  0.383  0.446
     eigenvectors (columns):
      -0.273  0.118  0.592 -0.022  0.749
      -0.268  0.441 -0.121  0.847 -0.047
       0.476 -0.589  0.402  0.513 -0.036
      -0.441 -0.622 -0.524  0.130  0.356
       0.658  0.238 -0.446  0.052  0.556
     occupation matrix ns (before diag.):
       0.382 -0.009 -0.001  0.036  0.063
      -0.009  0.356  0.041  0.008  0.002
      -0.001  0.041  0.315  0.003 -0.006
       0.036  0.008  0.003  0.313  0.037
       0.063  0.002 -0.006  0.037  0.337
     ------------------------ ATOM   11 ------------------------
     Tr[ns( 11)] (up, down, total) =   1.53811  1.55742  3.09553
     Atomic magnetic moment for atom  11 =  -0.01930
     SPIN  1
     eigenvalues:
       0.236  0.272  0.290  0.357  0.383
     eigenvectors (columns):
      -0.608 -0.064  0.574  0.336  0.429
      -0.406  0.492 -0.363  0.526 -0.429
       0.354 -0.392  0.430  0.507 -0.529
       0.023 -0.558 -0.585  0.447  0.382
       0.582  0.537  0.107  0.392  0.455
     occupation matrix ns (before diag.):
       0.295 -0.018  0.001  0.026  0.047
      -0.018  0.312  0.050  0.006  0.004
       0.001  0.050  0.324 -0.008 -0.017
       0.026  0.006 -0.008  0.311  0.033
       0.047  0.004 -0.017  0.033  0.296
     SPIN  2
     eigenvalues:
       0.237  0.274  0.291  0.366  0.389
     eigenvectors (columns):
      -0.596 -0.123  0.542  0.433  0.385
      -0.386  0.567 -0.310  0.448 -0.482
       0.369 -0.438  0.329  0.482 -0.575
      -0.001 -0.457 -0.695  0.449  0.326
       0.600  0.512  0.135  0.422  0.427
     occupation matrix ns (before diag.):
       0.300 -0.015  0.005  0.026  0.050
      -0.015  0.315  0.055  0.004  0.002
       0.005  0.055  0.330 -0.006 -0.017
       0.026  0.004 -0.006  0.313  0.032
       0.050  0.002 -0.017  0.032  0.298
     ------------------------ ATOM   12 ------------------------
     Tr[ns( 12)] (up, down, total) =   1.51969  1.53388  3.05356
     Atomic magnetic moment for atom  12 =  -0.01419
     SPIN  1
     eigenvalues:
       0.233  0.274  0.280  0.353  0.379
     eigenvectors (columns):
       0.633  0.235  0.526  0.183 -0.483
       0.522 -0.759 -0.378  0.052 -0.077
      -0.092  0.037 -0.186 -0.773 -0.598
       0.563  0.440 -0.264 -0.386  0.520
      -0.007 -0.417  0.690 -0.467  0.364
     occupation matrix ns (before diag.):
       0.286 -0.010  0.021 -0.048 -0.023
      -0.010  0.265  0.004 -0.017 -0.006
       0.021  0.004  0.359 -0.007  0.005
      -0.048 -0.017 -0.007  0.302  0.033
      -0.023 -0.006  0.005  0.033  0.308
     SPIN  2
     eigenvalues:
       0.235  0.274  0.284  0.359  0.381
     eigenvectors (columns):
       0.601  0.253  0.566  0.145 -0.482
       0.538 -0.762 -0.339  0.024 -0.120
      -0.093  0.077 -0.187 -0.813 -0.539
       0.582  0.430 -0.259 -0.330  0.548
      -0.036 -0.406  0.680 -0.458  0.403
     occupation matrix ns (before diag.):
       0.290 -0.008  0.019 -0.047 -0.022
      -0.008  0.266  0.008 -0.019 -0.008
       0.019  0.008  0.361 -0.006  0.007
      -0.047 -0.019 -0.006  0.303  0.036
      -0.022 -0.008  0.007  0.036  0.314

     Number of occupied Hubbard levels =   13.6578

     negative rho (up, down):  0.000E+00 2.147E-05

     total cpu time spent up to now is       79.2 secs

     total energy              =   -2179.02372570 Ry
     estimated scf accuracy    <     165.74519270 Ry

     total magnetization       =     0.32 Bohr mag/cell
     absolute magnetization    =     0.56 Bohr mag/cell

     iteration #  2     ecut=    60.00 Ry     beta= 0.40
     Davidson diagonalization with overlap
     ethr =  1.00E-02,  avg # of iterations =  4.5

     total cpu time spent up to now is      137.2 secs

     total energy              =   -2248.19240360 Ry
     estimated scf accuracy    <     176.59231983 Ry

     total magnetization       =     0.29 Bohr mag/cell
     absolute magnetization    =     0.62 Bohr mag/cell

     iteration #  3     ecut=    60.00 Ry     beta= 0.40
     Davidson diagonalization with overlap
     ethr =  1.00E-02,  avg # of iterations =  3.0

     total cpu time spent up to now is      183.7 secs

     total energy              =   -2255.75176423 Ry
     estimated scf accuracy    <      35.00998752 Ry

     total magnetization       =     3.17 Bohr mag/cell
     absolute magnetization    =     3.49 Bohr mag/cell

     iteration #  4     ecut=    60.00 Ry     beta= 0.40
     Davidson diagonalization with overlap
     ethr =  1.00E-02,  avg # of iterations =  1.0

     total cpu time spent up to now is      210.5 secs

     total energy              =   -2255.76298586 Ry
     estimated scf accuracy    <      31.71958662 Ry

     total magnetization       =     0.11 Bohr mag/cell
     absolute magnetization    =     0.17 Bohr mag/cell

     iteration #  5     ecut=    60.00 Ry     beta= 0.40
     Davidson diagonalization with overlap
     ethr =  1.00E-02,  avg # of iterations =  1.0

     total cpu time spent up to now is      237.3 secs

     total energy              =   -2254.96799656 Ry
     estimated scf accuracy    <      16.71816746 Ry

     total magnetization       =     1.06 Bohr mag/cell
     absolute magnetization    =     1.12 Bohr mag/cell

     iteration #  6     ecut=    60.00 Ry     beta= 0.40
     Davidson diagonalization with overlap
     ethr =  1.00E-02,  avg # of iterations =  1.0

     total cpu time spent up to now is      264.2 secs

     total energy              =   -2255.05845799 Ry
     estimated scf accuracy    <       7.55064189 Ry

     total magnetization       =     3.42 Bohr mag/cell
     absolute magnetization    =     4.02 Bohr mag/cell

     iteration #  7     ecut=    60.00 Ry     beta= 0.40
     Davidson diagonalization with overlap
     ethr =  5.85E-03,  avg # of iterations =  2.0

     negative rho (up, down):  0.000E+00 4.667E-06

     total cpu time spent up to now is      295.9 secs

     total energy              =   -2255.90029404 Ry
     estimated scf accuracy    <       4.42851921 Ry

     total magnetization       =     1.00 Bohr mag/cell
     absolute magnetization    =     1.67 Bohr mag/cell

     iteration #  8     ecut=    60.00 Ry     beta= 0.40
     Davidson diagonalization with overlap
     ethr =  3.43E-03,  avg # of iterations =  1.9

     negative rho (up, down):  0.000E+00 6.425E-06

     total cpu time spent up to now is      329.6 secs

     total energy              =   -2255.88324289 Ry
     estimated scf accuracy    <       1.82655357 Ry

     total magnetization       =     1.53 Bohr mag/cell
     absolute magnetization    =     2.86 Bohr mag/cell

     iteration #  9     ecut=    60.00 Ry     beta= 0.40
     Davidson diagonalization with overlap
     ethr =  1.42E-03,  avg # of iterations =  1.5

     negative rho (up, down):  0.000E+00 2.542E-05

     total cpu time spent up to now is      361.1 secs

     total energy              =   -2256.07330997 Ry
     estimated scf accuracy    <       0.56726434 Ry

     total magnetization       =     2.87 Bohr mag/cell
     absolute magnetization    =     4.55 Bohr mag/cell

     iteration # 10     ecut=    60.00 Ry     beta= 0.40
     Davidson diagonalization with overlap
     ethr =  4.40E-04,  avg # of iterations =  3.5

     negative rho (up, down):  0.000E+00 3.923E-05

     total cpu time spent up to now is      409.3 secs

     total energy              =   -2256.06758941 Ry
     estimated scf accuracy    <       1.06329117 Ry

     total magnetization       =     3.14 Bohr mag/cell
     absolute magnetization    =     4.99 Bohr mag/cell

     iteration # 11     ecut=    60.00 Ry     beta= 0.40
     Davidson diagonalization with overlap
     ethr =  4.40E-04,  avg # of iterations =  1.1

     negative rho (up, down):  0.000E+00 8.385E-05

     total cpu time spent up to now is      436.9 secs

     total energy              =   -2256.06902361 Ry
     estimated scf accuracy    <       0.63559098 Ry

     total magnetization       =     2.89 Bohr mag/cell
     absolute magnetization    =     5.00 Bohr mag/cell

     iteration # 12     ecut=    60.00 Ry     beta= 0.40
     Davidson diagonalization with overlap
     ethr =  4.40E-04,  avg # of iterations =  1.0

     negative rho (up, down):  0.000E+00 9.087E-05

     total cpu time spent up to now is      463.9 secs

     total energy              =   -2256.08921248 Ry
     estimated scf accuracy    <       0.13581511 Ry

     total magnetization       =     2.46 Bohr mag/cell
     absolute magnetization    =     4.91 Bohr mag/cell

     iteration # 13     ecut=    60.00 Ry     beta= 0.40
     Davidson diagonalization with overlap
     ethr =  1.05E-04,  avg # of iterations =  3.5

     negative rho (up, down):  0.000E+00 9.217E-05

     total cpu time spent up to now is      515.8 secs

     total energy              =   -2256.09721758 Ry
     estimated scf accuracy    <       0.06048456 Ry

     total magnetization       =     2.29 Bohr mag/cell
     absolute magnetization    =     4.90 Bohr mag/cell

     iteration # 14     ecut=    60.00 Ry     beta= 0.40
     Davidson diagonalization with overlap
     ethr =  4.69E-05,  avg # of iterations =  4.1

     negative rho (up, down):  0.000E+00 9.462E-05

     total cpu time spent up to now is      569.7 secs

     total energy              =   -2256.10209969 Ry
     estimated scf accuracy    <       0.07896749 Ry

     total magnetization       =     2.34 Bohr mag/cell
     absolute magnetization    =     4.98 Bohr mag/cell

     iteration # 15     ecut=    60.00 Ry     beta= 0.40
     Davidson diagonalization with overlap
     ethr =  4.69E-05,  avg # of iterations =  1.0

     negative rho (up, down):  0.000E+00 9.970E-05

     total cpu time spent up to now is      596.6 secs

     total energy              =   -2256.11138663 Ry
     estimated scf accuracy    <       0.07826309 Ry

     total magnetization       =     2.29 Bohr mag/cell
     absolute magnetization    =     5.04 Bohr mag/cell

     iteration # 16     ecut=    60.00 Ry     beta= 0.40
     Davidson diagonalization with overlap
     ethr =  4.69E-05,  avg # of iterations =  1.5

     negative rho (up, down):  0.000E+00 1.197E-04

     total cpu time spent up to now is      629.8 secs

     total energy              =   -2256.11573365 Ry
     estimated scf accuracy    <       0.05667966 Ry

     total magnetization       =     2.02 Bohr mag/cell
     absolute magnetization    =     5.24 Bohr mag/cell

     iteration # 17     ecut=    60.00 Ry     beta= 0.40
     Davidson diagonalization with overlap
     ethr =  4.39E-05,  avg # of iterations =  2.0

     negative rho (up, down):  0.000E+00 1.391E-04

     total cpu time spent up to now is      661.4 secs

     total energy              =   -2256.12122416 Ry
     estimated scf accuracy    <       0.02516193 Ry

     total magnetization       =     1.58 Bohr mag/cell
     absolute magnetization    =     5.77 Bohr mag/cell

     iteration # 18     ecut=    60.00 Ry     beta= 0.40
     Davidson diagonalization with overlap
     ethr =  1.95E-05,  avg # of iterations =  3.2

     negative rho (up, down):  0.000E+00 1.372E-04

     total cpu time spent up to now is      705.5 secs

     total energy              =   -2256.12687116 Ry
     estimated scf accuracy    <       0.01183622 Ry

     total magnetization       =     1.34 Bohr mag/cell
     absolute magnetization    =     6.04 Bohr mag/cell

     iteration # 19     ecut=    60.00 Ry     beta= 0.40
     Davidson diagonalization with overlap
     ethr =  9.18E-06,  avg # of iterations =  2.6

     negative rho (up, down):  0.000E+00 1.358E-04

     total cpu time spent up to now is      748.1 secs

     total energy              =   -2256.12818799 Ry
     estimated scf accuracy    <       0.00398521 Ry

     total magnetization       =     1.33 Bohr mag/cell
     absolute magnetization    =     5.97 Bohr mag/cell

     iteration # 20     ecut=    60.00 Ry     beta= 0.40
     Davidson diagonalization with overlap
     ethr =  3.09E-06,  avg # of iterations =  5.6

     negative rho (up, down):  0.000E+00 1.325E-04

     total cpu time spent up to now is      810.3 secs

     total energy              =   -2256.12931981 Ry
     estimated scf accuracy    <       0.00180339 Ry

     total magnetization       =     1.32 Bohr mag/cell
     absolute magnetization    =     5.92 Bohr mag/cell

     iteration # 21     ecut=    60.00 Ry     beta= 0.40
     Davidson diagonalization with overlap
     ethr =  1.40E-06,  avg # of iterations =  2.5

     negative rho (up, down):  0.000E+00 1.311E-04

     total cpu time spent up to now is      847.8 secs

     total energy              =   -2256.12984589 Ry
     estimated scf accuracy    <       0.00304640 Ry

     total magnetization       =     1.24 Bohr mag/cell
     absolute magnetization    =     5.89 Bohr mag/cell

     iteration # 22     ecut=    60.00 Ry     beta= 0.40
     Davidson diagonalization with overlap
     ethr =  1.40E-06,  avg # of iterations =  1.0

     negative rho (up, down):  0.000E+00 1.291E-04

     total cpu time spent up to now is      875.1 secs

     total energy              =   -2256.13032344 Ry
     estimated scf accuracy    <       0.00203681 Ry

     total magnetization       =     1.24 Bohr mag/cell
     absolute magnetization    =     5.90 Bohr mag/cell

     iteration # 23     ecut=    60.00 Ry     beta= 0.40
     Davidson diagonalization with overlap
     ethr =  1.40E-06,  avg # of iterations =  1.1

     negative rho (up, down):  0.000E+00 1.259E-04

     total cpu time spent up to now is      902.8 secs

     total energy              =   -2256.13092251 Ry
     estimated scf accuracy    <       0.00187434 Ry

     total magnetization       =     1.20 Bohr mag/cell
     absolute magnetization    =     5.92 Bohr mag/cell

     iteration # 24     ecut=    60.00 Ry     beta= 0.40
     Davidson diagonalization with overlap
     ethr =  1.40E-06,  avg # of iterations =  2.0

     negative rho (up, down):  0.000E+00 1.311E-04

     total cpu time spent up to now is      934.7 secs

     total energy              =   -2256.12926559 Ry
     estimated scf accuracy    <       0.00666021 Ry

     total magnetization       =     1.14 Bohr mag/cell
     absolute magnetization    =     5.85 Bohr mag/cell

     iteration # 25     ecut=    60.00 Ry     beta= 0.40
     Davidson diagonalization with overlap
     ethr =  1.40E-06,  avg # of iterations =  2.0

     negative rho (up, down):  0.000E+00 1.326E-04

     total cpu time spent up to now is      967.3 secs

     total energy              =   -2256.12965990 Ry
     estimated scf accuracy    <       0.00377114 Ry

     total magnetization       =     1.17 Bohr mag/cell
     absolute magnetization    =     5.95 Bohr mag/cell

     iteration # 26     ecut=    60.00 Ry     beta= 0.40
     Davidson diagonalization with overlap
     ethr =  1.40E-06,  avg # of iterations =  2.0

     negative rho (up, down):  0.000E+00 1.353E-04

     total cpu time spent up to now is     1001.7 secs

     total energy              =   -2256.12885642 Ry
     estimated scf accuracy    <       0.00296074 Ry

     total magnetization       =     1.15 Bohr mag/cell
     absolute magnetization    =     6.01 Bohr mag/cell

     iteration # 27     ecut=    60.00 Ry     beta= 0.40
     Davidson diagonalization with overlap
     ethr =  1.40E-06,  avg # of iterations =  2.1

     negative rho (up, down):  0.000E+00 1.288E-04

     total cpu time spent up to now is     1034.1 secs

     total energy              =   -2256.12993199 Ry
     estimated scf accuracy    <       0.00336787 Ry

     total magnetization       =     1.16 Bohr mag/cell
     absolute magnetization    =     6.03 Bohr mag/cell

     iteration # 28     ecut=    60.00 Ry     beta= 0.40
     Davidson diagonalization with overlap
     ethr =  1.40E-06,  avg # of iterations =  2.0

     negative rho (up, down):  0.000E+00 1.312E-04

     total cpu time spent up to now is     1067.1 secs

     total energy              =   -2256.12835939 Ry
     estimated scf accuracy    <       0.00530268 Ry

     total magnetization       =     1.11 Bohr mag/cell
     absolute magnetization    =     5.97 Bohr mag/cell

     iteration # 29     ecut=    60.00 Ry     beta= 0.40
     Davidson diagonalization with overlap
     ethr =  1.40E-06,  avg # of iterations =  2.1

     negative rho (up, down):  0.000E+00 1.434E-04

     total cpu time spent up to now is     1099.9 secs

     total energy              =   -2256.12138138 Ry
     estimated scf accuracy    <       0.00151850 Ry

     total magnetization       =     1.12 Bohr mag/cell
     absolute magnetization    =     6.08 Bohr mag/cell

     iteration # 30     ecut=    60.00 Ry     beta= 0.40
     Davidson diagonalization with overlap
     ethr =  1.18E-06,  avg # of iterations =  4.6

     negative rho (up, down):  0.000E+00 1.409E-04

     total cpu time spent up to now is     1154.7 secs

     total energy              =   -2256.12856025 Ry
     estimated scf accuracy    <       0.03109106 Ry

     total magnetization       =     1.07 Bohr mag/cell
     absolute magnetization    =     5.99 Bohr mag/cell

     iteration # 31     ecut=    60.00 Ry     beta= 0.40
     Davidson diagonalization with overlap
     ethr =  1.18E-06,  avg # of iterations =  1.7

     negative rho (up, down):  0.000E+00 1.409E-04

     total cpu time spent up to now is     1189.4 secs

     total energy              =   -2256.12900959 Ry
     estimated scf accuracy    <       0.01809900 Ry

     total magnetization       =     1.08 Bohr mag/cell
     absolute magnetization    =     6.04 Bohr mag/cell

     iteration # 32     ecut=    60.00 Ry     beta= 0.40
     Davidson diagonalization with overlap
     ethr =  1.18E-06,  avg # of iterations =  1.0

     negative rho (up, down):  0.000E+00 1.410E-04

     total cpu time spent up to now is     1216.2 secs

     total energy              =   -2256.12876956 Ry
     estimated scf accuracy    <       0.01941067 Ry

     total magnetization       =     1.07 Bohr mag/cell
     absolute magnetization    =     6.03 Bohr mag/cell

     iteration # 33     ecut=    60.00 Ry     beta= 0.40
     Davidson diagonalization with overlap
     ethr =  1.18E-06,  avg # of iterations =  1.3

     negative rho (up, down):  0.000E+00 1.407E-04

     total cpu time spent up to now is     1246.0 secs

     total energy              =   -2256.12919640 Ry
     estimated scf accuracy    <       0.02633648 Ry

     total magnetization       =     1.05 Bohr mag/cell
     absolute magnetization    =     6.01 Bohr mag/cell

     iteration # 34     ecut=    60.00 Ry     beta= 0.40
     Davidson diagonalization with overlap
     ethr =  1.18E-06,  avg # of iterations =  1.0

     negative rho (up, down):  0.000E+00 1.403E-04

     total cpu time spent up to now is     1272.8 secs

     total energy              =   -2256.12926576 Ry
     estimated scf accuracy    <       0.02217724 Ry

     total magnetization       =     1.06 Bohr mag/cell
     absolute magnetization    =     6.03 Bohr mag/cell

     iteration # 35     ecut=    60.00 Ry     beta= 0.40
     Davidson diagonalization with overlap
     ethr =  1.18E-06,  avg # of iterations =  1.0

     negative rho (up, down):  0.000E+00 1.414E-04

     total cpu time spent up to now is     1299.6 secs

     total energy              =   -2256.12946622 Ry
     estimated scf accuracy    <       0.01837476 Ry

     total magnetization       =     1.06 Bohr mag/cell
     absolute magnetization    =     6.04 Bohr mag/cell

     iteration # 36     ecut=    60.00 Ry     beta= 0.40
     Davidson diagonalization with overlap
     ethr =  1.18E-06,  avg # of iterations =  1.0

     negative rho (up, down):  0.000E+00 1.415E-04

     total cpu time spent up to now is     1326.5 secs

     total energy              =   -2256.12961915 Ry
     estimated scf accuracy    <       0.02468770 Ry

     total magnetization       =     1.05 Bohr mag/cell
     absolute magnetization    =     6.03 Bohr mag/cell

     iteration # 37     ecut=    60.00 Ry     beta= 0.40
     Davidson diagonalization with overlap
     ethr =  1.18E-06,  avg # of iterations =  1.0

     negative rho (up, down):  0.000E+00 1.294E-04

     total cpu time spent up to now is     1353.4 secs

     total energy              =   -2256.12366395 Ry
     estimated scf accuracy    <       0.02584854 Ry

     total magnetization       =     1.04 Bohr mag/cell
     absolute magnetization    =     6.05 Bohr mag/cell

     iteration # 38     ecut=    60.00 Ry     beta= 0.40
     Davidson diagonalization with overlap
     ethr =  1.18E-06,  avg # of iterations =  4.0

     negative rho (up, down):  0.000E+00 1.285E-04

     total cpu time spent up to now is     1402.7 secs

     total energy              =   -2256.13035505 Ry
     estimated scf accuracy    <       0.00092160 Ry

     total magnetization       =     1.10 Bohr mag/cell
     absolute magnetization    =     6.16 Bohr mag/cell

     iteration # 39     ecut=    60.00 Ry     beta= 0.40
     Davidson diagonalization with overlap
     ethr =  7.14E-07,  avg # of iterations =  2.0

     negative rho (up, down):  0.000E+00 1.292E-04

     total cpu time spent up to now is     1435.2 secs

     total energy              =   -2256.13067797 Ry
     estimated scf accuracy    <       0.00097918 Ry

     total magnetization       =     1.07 Bohr mag/cell
     absolute magnetization    =     6.19 Bohr mag/cell

     iteration # 40     ecut=    60.00 Ry     beta= 0.40
     Davidson diagonalization with overlap
     ethr =  7.14E-07,  avg # of iterations =  1.0

     negative rho (up, down):  0.000E+00 1.281E-04

     total cpu time spent up to now is     1462.0 secs

     total energy              =   -2256.13048383 Ry
     estimated scf accuracy    <       0.00059734 Ry

     total magnetization       =     1.07 Bohr mag/cell
     absolute magnetization    =     6.19 Bohr mag/cell

     iteration # 41     ecut=    60.00 Ry     beta= 0.40
     Davidson diagonalization with overlap
     ethr =  4.63E-07,  avg # of iterations =  2.2

     negative rho (up, down):  0.000E+00 1.284E-04

     total cpu time spent up to now is     1496.8 secs

     total energy              =   -2256.13071776 Ry
     estimated scf accuracy    <       0.00080539 Ry

     total magnetization       =     1.04 Bohr mag/cell
     absolute magnetization    =     6.21 Bohr mag/cell

     iteration # 42     ecut=    60.00 Ry     beta= 0.40
     Davidson diagonalization with overlap
     ethr =  4.63E-07,  avg # of iterations =  1.5

     negative rho (up, down):  0.000E+00 1.290E-04

     total cpu time spent up to now is     1526.7 secs

     total energy              =   -2256.13072720 Ry
     estimated scf accuracy    <       0.00066664 Ry

     total magnetization       =     1.04 Bohr mag/cell
     absolute magnetization    =     6.20 Bohr mag/cell

     iteration # 43     ecut=    60.00 Ry     beta= 0.40
     Davidson diagonalization with overlap
     ethr =  4.63E-07,  avg # of iterations =  1.1

     negative rho (up, down):  0.000E+00 1.297E-04

     total cpu time spent up to now is     1555.1 secs

     total energy              =   -2256.13033537 Ry
     estimated scf accuracy    <       0.00048026 Ry

     total magnetization       =     1.04 Bohr mag/cell
     absolute magnetization    =     6.19 Bohr mag/cell

     iteration # 44     ecut=    60.00 Ry     beta= 0.40
     Davidson diagonalization with overlap
     ethr =  3.72E-07,  avg # of iterations =  1.6

     negative rho (up, down):  0.000E+00 1.299E-04

     total cpu time spent up to now is     1586.5 secs

     total energy              =   -2256.13073640 Ry
     estimated scf accuracy    <       0.00039323 Ry

     total magnetization       =     1.04 Bohr mag/cell
     absolute magnetization    =     6.20 Bohr mag/cell

     iteration # 45     ecut=    60.00 Ry     beta= 0.40
     Davidson diagonalization with overlap
     ethr =  3.05E-07,  avg # of iterations =  1.2

     negative rho (up, down):  0.000E+00 1.301E-04

     total cpu time spent up to now is     1615.2 secs

     total energy              =   -2256.13085101 Ry
     estimated scf accuracy    <       0.00037651 Ry

     total magnetization       =     1.04 Bohr mag/cell
     absolute magnetization    =     6.19 Bohr mag/cell

     iteration # 46     ecut=    60.00 Ry     beta= 0.40
     Davidson diagonalization with overlap
     ethr =  2.92E-07,  avg # of iterations =  1.2

     negative rho (up, down):  0.000E+00 1.305E-04

     total cpu time spent up to now is     1644.2 secs

     total energy              =   -2256.13058990 Ry
     estimated scf accuracy    <       0.00040097 Ry

     total magnetization       =     1.04 Bohr mag/cell
     absolute magnetization    =     6.19 Bohr mag/cell

     iteration # 47     ecut=    60.00 Ry     beta= 0.40
     Davidson diagonalization with overlap
     ethr =  2.92E-07,  avg # of iterations =  2.0

     negative rho (up, down):  0.000E+00 1.302E-04

     total cpu time spent up to now is     1679.9 secs

     total energy              =   -2256.13081563 Ry
     estimated scf accuracy    <       0.00060826 Ry

     total magnetization       =     1.03 Bohr mag/cell
     absolute magnetization    =     6.16 Bohr mag/cell

     iteration # 48     ecut=    60.00 Ry     beta= 0.40
     Davidson diagonalization with overlap
     ethr =  2.92E-07,  avg # of iterations =  1.0

     negative rho (up, down):  0.000E+00 1.298E-04

     total cpu time spent up to now is     1706.8 secs

     total energy              =   -2256.13096714 Ry
     estimated scf accuracy    <       0.00046004 Ry

     total magnetization       =     1.04 Bohr mag/cell
     absolute magnetization    =     6.17 Bohr mag/cell

     iteration # 49     ecut=    60.00 Ry     beta= 0.40
     Davidson diagonalization with overlap
     ethr =  2.92E-07,  avg # of iterations =  1.5

     negative rho (up, down):  0.000E+00 1.295E-04

     total cpu time spent up to now is     1736.1 secs

     total energy              =   -2256.13058726 Ry
     estimated scf accuracy    <       0.00038524 Ry

     total magnetization       =     1.04 Bohr mag/cell
     absolute magnetization    =     6.18 Bohr mag/cell

     iteration # 50     ecut=    60.00 Ry     beta= 0.40
     Davidson diagonalization with overlap
     ethr =  2.92E-07,  avg # of iterations =  2.2

     negative rho (up, down):  0.000E+00 1.298E-04

     total cpu time spent up to now is     1770.5 secs

     total energy              =   -2256.12915019 Ry
     estimated scf accuracy    <       0.00046838 Ry

     total magnetization       =     1.03 Bohr mag/cell
     absolute magnetization    =     6.17 Bohr mag/cell

     iteration # 51     ecut=    60.00 Ry     beta= 0.40
     Davidson diagonalization with overlap
     ethr =  2.92E-07,  avg # of iterations =  3.1

     negative rho (up, down):  0.000E+00 1.290E-04

     total cpu time spent up to now is     1810.2 secs

     total energy              =   -2256.12958228 Ry
     estimated scf accuracy    <       0.00170545 Ry

     total magnetization       =     1.02 Bohr mag/cell
     absolute magnetization    =     6.12 Bohr mag/cell

     iteration # 52     ecut=    60.00 Ry     beta= 0.40
     Davidson diagonalization with overlap
     ethr =  2.92E-07,  avg # of iterations =  1.8

     negative rho (up, down):  0.000E+00 1.260E-04

     total cpu time spent up to now is     1842.5 secs

     total energy              =   -2256.12853203 Ry
     estimated scf accuracy    <       0.00190670 Ry

     total magnetization       =     1.02 Bohr mag/cell
     absolute magnetization    =     6.10 Bohr mag/cell

     iteration # 53     ecut=    60.00 Ry     beta= 0.40
     Davidson diagonalization with overlap
     ethr =  2.92E-07,  avg # of iterations =  2.6

     negative rho (up, down):  0.000E+00 1.243E-04

     total cpu time spent up to now is     1880.5 secs

     total energy              =   -2256.12842689 Ry
     estimated scf accuracy    <       0.00057800 Ry

     total magnetization       =     1.03 Bohr mag/cell
     absolute magnetization    =     6.17 Bohr mag/cell

     iteration # 54     ecut=    60.00 Ry     beta= 0.40
     Davidson diagonalization with overlap
     ethr =  2.92E-07,  avg # of iterations =  2.6

     negative rho (up, down):  0.000E+00 1.239E-04

     total cpu time spent up to now is     1917.5 secs

     total energy              =   -2256.12907104 Ry
     estimated scf accuracy    <       0.00028815 Ry

     total magnetization       =     1.03 Bohr mag/cell
     absolute magnetization    =     6.11 Bohr mag/cell

     iteration # 55     ecut=    60.00 Ry     beta= 0.40
     Davidson diagonalization with overlap
     ethr =  2.23E-07,  avg # of iterations =  1.0

     negative rho (up, down):  0.000E+00 1.239E-04

     total cpu time spent up to now is     1944.3 secs

     total energy              =   -2256.12922925 Ry
     estimated scf accuracy    <       0.00045146 Ry

     total magnetization       =     1.03 Bohr mag/cell
     absolute magnetization    =     6.12 Bohr mag/cell

     iteration # 56     ecut=    60.00 Ry     beta= 0.40
     Davidson diagonalization with overlap
     ethr =  2.23E-07,  avg # of iterations =  1.0

     negative rho (up, down):  0.000E+00 1.248E-04

     total cpu time spent up to now is     1971.1 secs

     total energy              =   -2256.12923997 Ry
     estimated scf accuracy    <       0.00038057 Ry

     total magnetization       =     1.03 Bohr mag/cell
     absolute magnetization    =     6.12 Bohr mag/cell

     iteration # 57     ecut=    60.00 Ry     beta= 0.40
     Davidson diagonalization with overlap
     ethr =  2.23E-07,  avg # of iterations =  2.1

     negative rho (up, down):  0.000E+00 1.246E-04

     total cpu time spent up to now is     2008.3 secs

     total energy              =   -2256.12923469 Ry
     estimated scf accuracy    <       0.00104574 Ry

     total magnetization       =     1.02 Bohr mag/cell
     absolute magnetization    =     6.06 Bohr mag/cell

     iteration # 58     ecut=    60.00 Ry     beta= 0.40
     Davidson diagonalization with overlap
     ethr =  2.23E-07,  avg # of iterations =  1.2

     negative rho (up, down):  0.000E+00 1.252E-04

     total cpu time spent up to now is     2037.2 secs

     total energy              =   -2256.12904953 Ry
     estimated scf accuracy    <       0.00058232 Ry

     total magnetization       =     1.02 Bohr mag/cell
     absolute magnetization    =     6.08 Bohr mag/cell

     iteration # 59     ecut=    60.00 Ry     beta= 0.40
     Davidson diagonalization with overlap
     ethr =  2.23E-07,  avg # of iterations =  2.0

     negative rho (up, down):  0.000E+00 1.253E-04

     total cpu time spent up to now is     2069.8 secs

     total energy              =   -2256.12901432 Ry
     estimated scf accuracy    <       0.00033909 Ry

     total magnetization       =     1.03 Bohr mag/cell
     absolute magnetization    =     6.10 Bohr mag/cell

     iteration # 60     ecut=    60.00 Ry     beta= 0.40
     Davidson diagonalization with overlap
     ethr =  2.23E-07,  avg # of iterations =  1.3

     negative rho (up, down):  0.000E+00 1.253E-04

     total cpu time spent up to now is     2099.7 secs

     total energy              =   -2256.12894007 Ry
     estimated scf accuracy    <       0.00035760 Ry

     total magnetization       =     1.03 Bohr mag/cell
     absolute magnetization    =     6.10 Bohr mag/cell

     iteration # 61     ecut=    60.00 Ry     beta= 0.40
     Davidson diagonalization with overlap
     ethr =  2.23E-07,  avg # of iterations =  1.4

     negative rho (up, down):  0.000E+00 1.266E-04

     total cpu time spent up to now is     2130.9 secs

     total energy              =   -2256.12897965 Ry
     estimated scf accuracy    <       0.00040033 Ry

     total magnetization       =     1.02 Bohr mag/cell
     absolute magnetization    =     6.10 Bohr mag/cell

     iteration # 62     ecut=    60.00 Ry     beta= 0.40
     Davidson diagonalization with overlap
     ethr =  2.23E-07,  avg # of iterations =  2.1

     negative rho (up, down):  0.000E+00 1.265E-04

     total cpu time spent up to now is     2163.8 secs

     total energy              =   -2256.12895469 Ry
     estimated scf accuracy    <       0.00026647 Ry

     total magnetization       =     1.03 Bohr mag/cell
     absolute magnetization    =     6.14 Bohr mag/cell

     iteration # 63     ecut=    60.00 Ry     beta= 0.40
     Davidson diagonalization with overlap
     ethr =  2.07E-07,  avg # of iterations =  1.5

     negative rho (up, down):  0.000E+00 1.272E-04

     total cpu time spent up to now is     2193.8 secs

     total energy              =   -2256.12908862 Ry
     estimated scf accuracy    <       0.00024314 Ry

     total magnetization       =     1.03 Bohr mag/cell
     absolute magnetization    =     6.13 Bohr mag/cell

     iteration # 64     ecut=    60.00 Ry     beta= 0.40
     Davidson diagonalization with overlap
     ethr =  1.88E-07,  avg # of iterations =  1.9

     negative rho (up, down):  0.000E+00 1.271E-04

     total cpu time spent up to now is     2230.2 secs

     total energy              =   -2256.12918575 Ry
     estimated scf accuracy    <       0.00025007 Ry

     total magnetization       =     1.03 Bohr mag/cell
     absolute magnetization    =     6.14 Bohr mag/cell

     iteration # 65     ecut=    60.00 Ry     beta= 0.40
     Davidson diagonalization with overlap
     ethr =  1.88E-07,  avg # of iterations =  1.0

     negative rho (up, down):  0.000E+00 1.272E-04

     total cpu time spent up to now is     2257.1 secs

     total energy              =   -2256.12922003 Ry
     estimated scf accuracy    <       0.00024781 Ry

     total magnetization       =     1.03 Bohr mag/cell
     absolute magnetization    =     6.14 Bohr mag/cell

     iteration # 66     ecut=    60.00 Ry     beta= 0.40
     Davidson diagonalization with overlap
     ethr =  1.88E-07,  avg # of iterations =  1.0

     negative rho (up, down):  0.000E+00 1.269E-04

     total cpu time spent up to now is     2284.0 secs

     total energy              =   -2256.12912257 Ry
     estimated scf accuracy    <       0.00024914 Ry

     total magnetization       =     1.03 Bohr mag/cell
     absolute magnetization    =     6.14 Bohr mag/cell

     iteration # 67     ecut=    60.00 Ry     beta= 0.40
     Davidson diagonalization with overlap
     ethr =  1.88E-07,  avg # of iterations =  1.1

     negative rho (up, down):  0.000E+00 1.269E-04

     total cpu time spent up to now is     2311.5 secs

     total energy              =   -2256.12915096 Ry
     estimated scf accuracy    <       0.00024820 Ry

     total magnetization       =     1.03 Bohr mag/cell
     absolute magnetization    =     6.14 Bohr mag/cell

     iteration # 68     ecut=    60.00 Ry     beta= 0.40
     Davidson diagonalization with overlap
     ethr =  1.88E-07,  avg # of iterations =  1.0

     negative rho (up, down):  0.000E+00 1.268E-04

     total cpu time spent up to now is     2338.3 secs

     total energy              =   -2256.12906355 Ry
     estimated scf accuracy    <       0.00024717 Ry

     total magnetization       =     1.03 Bohr mag/cell
     absolute magnetization    =     6.14 Bohr mag/cell

     iteration # 69     ecut=    60.00 Ry     beta= 0.40
     Davidson diagonalization with overlap
     ethr =  1.88E-07,  avg # of iterations =  1.0

     negative rho (up, down):  0.000E+00 1.273E-04

     total cpu time spent up to now is     2365.2 secs

     total energy              =   -2256.12903273 Ry
     estimated scf accuracy    <       0.00024078 Ry

     total magnetization       =     1.03 Bohr mag/cell
     absolute magnetization    =     6.14 Bohr mag/cell

     iteration # 70     ecut=    60.00 Ry     beta= 0.40
     Davidson diagonalization with overlap
     ethr =  1.87E-07,  avg # of iterations =  1.0

     negative rho (up, down):  0.000E+00 1.280E-04

     total cpu time spent up to now is     2392.2 secs

     total energy              =   -2256.12891121 Ry
     estimated scf accuracy    <       0.00023917 Ry

     total magnetization       =     1.03 Bohr mag/cell
     absolute magnetization    =     6.15 Bohr mag/cell

     iteration # 71     ecut=    60.00 Ry     beta= 0.40
     Davidson diagonalization with overlap
     ethr =  1.85E-07,  avg # of iterations =  2.0

     negative rho (up, down):  0.000E+00 1.291E-04

     total cpu time spent up to now is     2424.8 secs

     total energy              =   -2256.12824451 Ry
     estimated scf accuracy    <       0.00023018 Ry

     total magnetization       =     1.03 Bohr mag/cell
     absolute magnetization    =     6.16 Bohr mag/cell

     iteration # 72     ecut=    60.00 Ry     beta= 0.40
     Davidson diagonalization with overlap
     ethr =  1.78E-07,  avg # of iterations =  2.7

     negative rho (up, down):  0.000E+00 1.303E-04

     total cpu time spent up to now is     2463.1 secs

     total energy              =   -2256.12813683 Ry
     estimated scf accuracy    <       0.00020278 Ry

     total magnetization       =     1.03 Bohr mag/cell
     absolute magnetization    =     6.18 Bohr mag/cell

     iteration # 73     ecut=    60.00 Ry     beta= 0.40
     Davidson diagonalization with overlap
     ethr =  1.57E-07,  avg # of iterations =  2.5

     negative rho (up, down):  0.000E+00 1.307E-04

     total cpu time spent up to now is     2498.7 secs

     total energy              =   -2256.12848072 Ry
     estimated scf accuracy    <       0.00021923 Ry

     total magnetization       =     1.04 Bohr mag/cell
     absolute magnetization    =     6.21 Bohr mag/cell

     iteration # 74     ecut=    60.00 Ry     beta= 0.40
     Davidson diagonalization with overlap
     ethr =  1.57E-07,  avg # of iterations =  1.5

     negative rho (up, down):  0.000E+00 1.313E-04

     total cpu time spent up to now is     2529.0 secs

     total energy              =   -2256.12863770 Ry
     estimated scf accuracy    <       0.00021073 Ry

     total magnetization       =     1.04 Bohr mag/cell
     absolute magnetization    =     6.21 Bohr mag/cell

     iteration # 75     ecut=    60.00 Ry     beta= 0.40
     Davidson diagonalization with overlap
     ethr =  1.57E-07,  avg # of iterations =  2.0

     negative rho (up, down):  0.000E+00 1.313E-04

     total cpu time spent up to now is     2561.3 secs

     total energy              =   -2256.12881005 Ry
     estimated scf accuracy    <       0.00020154 Ry

     total magnetization       =     1.04 Bohr mag/cell
     absolute magnetization    =     6.22 Bohr mag/cell

     iteration # 76     ecut=    60.00 Ry     beta= 0.40
     Davidson diagonalization with overlap
     ethr =  1.56E-07,  avg # of iterations =  1.1

     negative rho (up, down):  0.000E+00 1.318E-04

     total cpu time spent up to now is     2589.3 secs

     total energy              =   -2256.12880798 Ry
     estimated scf accuracy    <       0.00021476 Ry

     total magnetization       =     1.04 Bohr mag/cell
     absolute magnetization    =     6.23 Bohr mag/cell

     iteration # 77     ecut=    60.00 Ry     beta= 0.40
     Davidson diagonalization with overlap
     ethr =  1.56E-07,  avg # of iterations =  2.1

     negative rho (up, down):  0.000E+00 1.316E-04

     total cpu time spent up to now is     2622.4 secs

     total energy              =   -2256.12898498 Ry
     estimated scf accuracy    <       0.00019529 Ry

     total magnetization       =     1.04 Bohr mag/cell
     absolute magnetization    =     6.24 Bohr mag/cell

     iteration # 78     ecut=    60.00 Ry     beta= 0.40
     Davidson diagonalization with overlap
     ethr =  1.51E-07,  avg # of iterations =  1.4

     negative rho (up, down):  0.000E+00 1.318E-04

     total cpu time spent up to now is     2652.7 secs

     total energy              =   -2256.12895527 Ry
     estimated scf accuracy    <       0.00019822 Ry

     total magnetization       =     1.04 Bohr mag/cell
     absolute magnetization    =     6.24 Bohr mag/cell

     iteration # 79     ecut=    60.00 Ry     beta= 0.40
     Davidson diagonalization with overlap
     ethr =  1.51E-07,  avg # of iterations =  1.0

     negative rho (up, down):  0.000E+00 1.315E-04

     total cpu time spent up to now is     2679.8 secs

     total energy              =   -2256.12901460 Ry
     estimated scf accuracy    <       0.00018764 Ry

     total magnetization       =     1.04 Bohr mag/cell
     absolute magnetization    =     6.24 Bohr mag/cell

     iteration # 80     ecut=    60.00 Ry     beta= 0.40
     Davidson diagonalization with overlap
     ethr =  1.45E-07,  avg # of iterations =  1.0

     negative rho (up, down):  0.000E+00 1.313E-04

     total cpu time spent up to now is     2706.6 secs

     total energy              =   -2256.12902427 Ry
     estimated scf accuracy    <       0.00022292 Ry

     total magnetization       =     1.04 Bohr mag/cell
     absolute magnetization    =     6.24 Bohr mag/cell

     iteration # 81     ecut=    60.00 Ry     beta= 0.40
     Davidson diagonalization with overlap
     ethr =  1.45E-07,  avg # of iterations =  1.0

     negative rho (up, down):  0.000E+00 1.316E-04

     total cpu time spent up to now is     2733.5 secs

     total energy              =   -2256.12900105 Ry
     estimated scf accuracy    <       0.00026355 Ry

     total magnetization       =     1.04 Bohr mag/cell
     absolute magnetization    =     6.24 Bohr mag/cell

     iteration # 82     ecut=    60.00 Ry     beta= 0.40
     Davidson diagonalization with overlap
     ethr =  1.45E-07,  avg # of iterations =  1.0

     negative rho (up, down):  0.000E+00 1.316E-04

     total cpu time spent up to now is     2760.3 secs

     total energy              =   -2256.12899828 Ry
     estimated scf accuracy    <       0.00024033 Ry

     total magnetization       =     1.04 Bohr mag/cell
     absolute magnetization    =     6.24 Bohr mag/cell

     iteration # 83     ecut=    60.00 Ry     beta= 0.40
     Davidson diagonalization with overlap
     ethr =  1.45E-07,  avg # of iterations =  1.0

     negative rho (up, down):  0.000E+00 1.318E-04

     total cpu time spent up to now is     2787.5 secs

     total energy              =   -2256.12904245 Ry
     estimated scf accuracy    <       0.00023698 Ry

     total magnetization       =     1.04 Bohr mag/cell
     absolute magnetization    =     6.24 Bohr mag/cell

     iteration # 84     ecut=    60.00 Ry     beta= 0.40
     Davidson diagonalization with overlap
     ethr =  1.45E-07,  avg # of iterations =  1.0

     negative rho (up, down):  0.000E+00 1.318E-04

     total cpu time spent up to now is     2814.5 secs

     total energy              =   -2256.12908365 Ry
     estimated scf accuracy    <       0.00022501 Ry

     total magnetization       =     1.04 Bohr mag/cell
     absolute magnetization    =     6.25 Bohr mag/cell

     iteration # 85     ecut=    60.00 Ry     beta= 0.40
     Davidson diagonalization with overlap
     ethr =  1.45E-07,  avg # of iterations =  1.0

     negative rho (up, down):  0.000E+00 1.318E-04

     total cpu time spent up to now is     2841.3 secs

     total energy              =   -2256.12909593 Ry
     estimated scf accuracy    <       0.00023310 Ry

     total magnetization       =     1.04 Bohr mag/cell
     absolute magnetization    =     6.25 Bohr mag/cell

     iteration # 86     ecut=    60.00 Ry     beta= 0.40
     Davidson diagonalization with overlap
     ethr =  1.45E-07,  avg # of iterations =  1.9

     negative rho (up, down):  0.000E+00 1.319E-04

     total cpu time spent up to now is     2877.4 secs

     total energy              =   -2256.12909361 Ry
     estimated scf accuracy    <       0.00022322 Ry

     total magnetization       =     1.04 Bohr mag/cell
     absolute magnetization    =     6.25 Bohr mag/cell

     iteration # 87     ecut=    60.00 Ry     beta= 0.40
     Davidson diagonalization with overlap
     ethr =  1.45E-07,  avg # of iterations =  1.0

     negative rho (up, down):  0.000E+00 1.318E-04

     total cpu time spent up to now is     2904.3 secs

     total energy              =   -2256.12910460 Ry
     estimated scf accuracy    <       0.00020504 Ry

     total magnetization       =     1.04 Bohr mag/cell
     absolute magnetization    =     6.25 Bohr mag/cell

     iteration # 88     ecut=    60.00 Ry     beta= 0.40
     Davidson diagonalization with overlap
     ethr =  1.45E-07,  avg # of iterations =  1.0

     negative rho (up, down):  0.000E+00 1.320E-04

     total cpu time spent up to now is     2931.1 secs

     total energy              =   -2256.12914507 Ry
     estimated scf accuracy    <       0.00020880 Ry

     total magnetization       =     1.04 Bohr mag/cell
     absolute magnetization    =     6.25 Bohr mag/cell

     iteration # 89     ecut=    60.00 Ry     beta= 0.40
     Davidson diagonalization with overlap
     ethr =  1.45E-07,  avg # of iterations =  1.0

     negative rho (up, down):  0.000E+00 1.320E-04

     total cpu time spent up to now is     2958.2 secs

     total energy              =   -2256.12918789 Ry
     estimated scf accuracy    <       0.00020079 Ry

     total magnetization       =     1.04 Bohr mag/cell
     absolute magnetization    =     6.25 Bohr mag/cell

     iteration # 90     ecut=    60.00 Ry     beta= 0.40
     Davidson diagonalization with overlap
     ethr =  1.45E-07,  avg # of iterations =  1.3

     negative rho (up, down):  0.000E+00 1.320E-04

     total cpu time spent up to now is     2987.5 secs

     total energy              =   -2256.12921469 Ry
     estimated scf accuracy    <       0.00020847 Ry

     total magnetization       =     1.04 Bohr mag/cell
     absolute magnetization    =     6.25 Bohr mag/cell

     iteration # 91     ecut=    60.00 Ry     beta= 0.40
     Davidson diagonalization with overlap
     ethr =  1.45E-07,  avg # of iterations =  1.0

     negative rho (up, down):  0.000E+00 1.319E-04

     total cpu time spent up to now is     3014.3 secs

     total energy              =   -2256.12918546 Ry
     estimated scf accuracy    <       0.00020622 Ry

     total magnetization       =     1.04 Bohr mag/cell
     absolute magnetization    =     6.25 Bohr mag/cell

     iteration # 92     ecut=    60.00 Ry     beta= 0.40
     Davidson diagonalization with overlap
     ethr =  1.45E-07,  avg # of iterations =  1.0

     negative rho (up, down):  0.000E+00 1.319E-04

     total cpu time spent up to now is     3041.1 secs

     total energy              =   -2256.12918190 Ry
     estimated scf accuracy    <       0.00020860 Ry

     total magnetization       =     1.04 Bohr mag/cell
     absolute magnetization    =     6.25 Bohr mag/cell

     iteration # 93     ecut=    60.00 Ry     beta= 0.40
     Davidson diagonalization with overlap
     ethr =  1.45E-07,  avg # of iterations =  1.0

     negative rho (up, down):  0.000E+00 1.319E-04

     total cpu time spent up to now is     3068.0 secs

     total energy              =   -2256.12918434 Ry
     estimated scf accuracy    <       0.00021037 Ry

     total magnetization       =     1.04 Bohr mag/cell
     absolute magnetization    =     6.25 Bohr mag/cell

     iteration # 94     ecut=    60.00 Ry     beta= 0.40
     Davidson diagonalization with overlap
     ethr =  1.45E-07,  avg # of iterations =  1.0

     negative rho (up, down):  0.000E+00 1.319E-04

     total cpu time spent up to now is     3094.8 secs

     total energy              =   -2256.12917195 Ry
     estimated scf accuracy    <       0.00020780 Ry

     total magnetization       =     1.04 Bohr mag/cell
     absolute magnetization    =     6.25 Bohr mag/cell

     iteration # 95     ecut=    60.00 Ry     beta= 0.40
     Davidson diagonalization with overlap
     ethr =  1.45E-07,  avg # of iterations =  1.0

     negative rho (up, down):  0.000E+00 1.319E-04

     total cpu time spent up to now is     3121.7 secs

     total energy              =   -2256.12900440 Ry
     estimated scf accuracy    <       0.00020985 Ry

     total magnetization       =     1.04 Bohr mag/cell
     absolute magnetization    =     6.25 Bohr mag/cell

     iteration # 96     ecut=    60.00 Ry     beta= 0.40
     Davidson diagonalization with overlap
     ethr =  1.45E-07,  avg # of iterations =  2.0

     negative rho (up, down):  0.000E+00 1.320E-04

     total cpu time spent up to now is     3153.4 secs

     total energy              =   -2256.12917745 Ry
     estimated scf accuracy    <       0.00020092 Ry

     total magnetization       =     1.04 Bohr mag/cell
     absolute magnetization    =     6.25 Bohr mag/cell

     iteration # 97     ecut=    60.00 Ry     beta= 0.40
     Davidson diagonalization with overlap
     ethr =  1.45E-07,  avg # of iterations =  2.0

     negative rho (up, down):  0.000E+00 1.319E-04

     total cpu time spent up to now is     3185.4 secs

     total energy              =   -2256.12919028 Ry
     estimated scf accuracy    <       0.00021324 Ry

     total magnetization       =     1.04 Bohr mag/cell
     absolute magnetization    =     6.26 Bohr mag/cell

     iteration # 98     ecut=    60.00 Ry     beta= 0.40
     Davidson diagonalization with overlap
     ethr =  1.45E-07,  avg # of iterations =  1.0

     negative rho (up, down):  0.000E+00 1.317E-04

     total cpu time spent up to now is     3212.2 secs

     total energy              =   -2256.12898885 Ry
     estimated scf accuracy    <       0.00021574 Ry

     total magnetization       =     1.04 Bohr mag/cell
     absolute magnetization    =     6.25 Bohr mag/cell

     iteration # 99     ecut=    60.00 Ry     beta= 0.40
     Davidson diagonalization with overlap
     ethr =  1.45E-07,  avg # of iterations =  1.9

     negative rho (up, down):  0.000E+00 1.311E-04

     total cpu time spent up to now is     3248.1 secs

     total energy              =   -2256.12878226 Ry
     estimated scf accuracy    <       0.00020472 Ry

     total magnetization       =     1.04 Bohr mag/cell
     absolute magnetization    =     6.25 Bohr mag/cell

     iteration #100     ecut=    60.00 Ry     beta= 0.40
     Davidson diagonalization with overlap
     ethr =  1.45E-07,  avg # of iterations =  2.0

     negative rho (up, down):  0.000E+00 1.308E-04

     total cpu time spent up to now is     3279.5 secs

     total energy              =   -2256.12839632 Ry
     estimated scf accuracy    <       0.00023891 Ry

     total magnetization       =     1.04 Bohr mag/cell
     absolute magnetization    =     6.25 Bohr mag/cell

     iteration #101     ecut=    60.00 Ry     beta= 0.40
     Davidson diagonalization with overlap
     ethr =  1.45E-07,  avg # of iterations =  2.3

     negative rho (up, down):  0.000E+00 1.296E-04

     total cpu time spent up to now is     3314.6 secs

     total energy              =   -2256.12703175 Ry
     estimated scf accuracy    <       0.00022128 Ry

     total magnetization       =     1.04 Bohr mag/cell
     absolute magnetization    =     6.22 Bohr mag/cell

     iteration #102     ecut=    60.00 Ry     beta= 0.40
     Davidson diagonalization with overlap
     ethr =  1.45E-07,  avg # of iterations =  3.6

     negative rho (up, down):  0.000E+00 1.298E-04

     total cpu time spent up to now is     3356.8 secs

     total energy              =   -2256.12824512 Ry
     estimated scf accuracy    <       0.00021015 Ry

     total magnetization       =     1.03 Bohr mag/cell
     absolute magnetization    =     6.20 Bohr mag/cell

     iteration #103     ecut=    60.00 Ry     beta= 0.40
     Davidson diagonalization with overlap
     ethr =  1.45E-07,  avg # of iterations =  2.0

     negative rho (up, down):  0.000E+00 1.295E-04

     total cpu time spent up to now is     3388.4 secs

     total energy              =   -2256.12833884 Ry
     estimated scf accuracy    <       0.00021719 Ry

     total magnetization       =     1.03 Bohr mag/cell
     absolute magnetization    =     6.20 Bohr mag/cell

     iteration #104     ecut=    60.00 Ry     beta= 0.40
     Davidson diagonalization with overlap
     ethr =  1.45E-07,  avg # of iterations =  1.0

     negative rho (up, down):  0.000E+00 1.290E-04

     total cpu time spent up to now is     3415.3 secs

     total energy              =   -2256.12840703 Ry
     estimated scf accuracy    <       0.00020529 Ry

     total magnetization       =     1.03 Bohr mag/cell
     absolute magnetization    =     6.20 Bohr mag/cell

     iteration #105     ecut=    60.00 Ry     beta= 0.40
     Davidson diagonalization with overlap
     ethr =  1.45E-07,  avg # of iterations =  2.0

     negative rho (up, down):  0.000E+00 1.295E-04

     total cpu time spent up to now is     3446.8 secs

     total energy              =   -2256.12863367 Ry
     estimated scf accuracy    <       0.00017890 Ry

     total magnetization       =     1.03 Bohr mag/cell
     absolute magnetization    =     6.20 Bohr mag/cell

     iteration #106     ecut=    60.00 Ry     beta= 0.40
     Davidson diagonalization with overlap
     ethr =  1.39E-07,  avg # of iterations =  1.8

     negative rho (up, down):  0.000E+00 1.293E-04

     total cpu time spent up to now is     3482.5 secs

     total energy              =   -2256.12862586 Ry
     estimated scf accuracy    <       0.00017546 Ry

     total magnetization       =     1.03 Bohr mag/cell
     absolute magnetization    =     6.21 Bohr mag/cell

     iteration #107     ecut=    60.00 Ry     beta= 0.40
     Davidson diagonalization with overlap
     ethr =  1.36E-07,  avg # of iterations =  1.0

     negative rho (up, down):  0.000E+00 1.288E-04

     total cpu time spent up to now is     3509.4 secs

     total energy              =   -2256.12838535 Ry
     estimated scf accuracy    <       0.00017849 Ry

     total magnetization       =     1.03 Bohr mag/cell
     absolute magnetization    =     6.20 Bohr mag/cell

     iteration #108     ecut=    60.00 Ry     beta= 0.40
     Davidson diagonalization with overlap
     ethr =  1.36E-07,  avg # of iterations =  2.3

     negative rho (up, down):  0.000E+00 1.288E-04

     total cpu time spent up to now is     3544.0 secs

     total energy              =   -2256.12787721 Ry
     estimated scf accuracy    <       0.00016975 Ry

     total magnetization       =     1.03 Bohr mag/cell
     absolute magnetization    =     6.21 Bohr mag/cell

     iteration #109     ecut=    60.00 Ry     beta= 0.40
     Davidson diagonalization with overlap
     ethr =  1.32E-07,  avg # of iterations =  3.5

     negative rho (up, down):  0.000E+00 1.298E-04

     total cpu time spent up to now is     3589.8 secs

     total energy              =   -2256.12825426 Ry
     estimated scf accuracy    <       0.00016609 Ry

     total magnetization       =     1.03 Bohr mag/cell
     absolute magnetization    =     6.21 Bohr mag/cell

     iteration #110     ecut=    60.00 Ry     beta= 0.40
     Davidson diagonalization with overlap
     ethr =  1.29E-07,  avg # of iterations =  2.8

     negative rho (up, down):  0.000E+00 1.303E-04

     total cpu time spent up to now is     3627.9 secs

     total energy              =   -2256.12867794 Ry
     estimated scf accuracy    <       0.00016051 Ry

     total magnetization       =     1.04 Bohr mag/cell
     absolute magnetization    =     6.24 Bohr mag/cell

     iteration #111     ecut=    60.00 Ry     beta= 0.40
     Davidson diagonalization with overlap
     ethr =  1.24E-07,  avg # of iterations =  2.6

     negative rho (up, down):  0.000E+00 1.303E-04

     total cpu time spent up to now is     3663.8 secs

     total energy              =   -2256.12908926 Ry
     estimated scf accuracy    <       0.00016453 Ry

     total magnetization       =     1.04 Bohr mag/cell
     absolute magnetization    =     6.25 Bohr mag/cell

     iteration #112     ecut=    60.00 Ry     beta= 0.40
     Davidson diagonalization with overlap
     ethr =  1.24E-07,  avg # of iterations =  2.0

     negative rho (up, down):  0.000E+00 1.303E-04

     total cpu time spent up to now is     3695.1 secs

     total energy              =   -2256.12909098 Ry
     estimated scf accuracy    <       0.00017254 Ry

     total magnetization       =     1.04 Bohr mag/cell
     absolute magnetization    =     6.26 Bohr mag/cell

     iteration #113     ecut=    60.00 Ry     beta= 0.40
     Davidson diagonalization with overlap
     ethr =  1.24E-07,  avg # of iterations =  2.0

     negative rho (up, down):  0.000E+00 1.302E-04

     total cpu time spent up to now is     3726.9 secs

     total energy              =   -2256.12909010 Ry
     estimated scf accuracy    <       0.00015999 Ry

     total magnetization       =     1.03 Bohr mag/cell
     absolute magnetization    =     6.25 Bohr mag/cell

     iteration #114     ecut=    60.00 Ry     beta= 0.40
     Davidson diagonalization with overlap
     ethr =  1.24E-07,  avg # of iterations =  1.3

     negative rho (up, down):  0.000E+00 1.300E-04

     total cpu time spent up to now is     3756.9 secs

     total energy              =   -2256.12883049 Ry
     estimated scf accuracy    <       0.00016480 Ry

     total magnetization       =     1.03 Bohr mag/cell
     absolute magnetization    =     6.25 Bohr mag/cell

     iteration #115     ecut=    60.00 Ry     beta= 0.40
     Davidson diagonalization with overlap
     ethr =  1.24E-07,  avg # of iterations =  2.1

     negative rho (up, down):  0.000E+00 1.298E-04

     total cpu time spent up to now is     3789.1 secs

     total energy              =   -2256.12895604 Ry
     estimated scf accuracy    <       0.00016778 Ry

     total magnetization       =     1.03 Bohr mag/cell
     absolute magnetization    =     6.24 Bohr mag/cell

     iteration #116     ecut=    60.00 Ry     beta= 0.40
     Davidson diagonalization with overlap
     ethr =  1.24E-07,  avg # of iterations =  1.0

     negative rho (up, down):  0.000E+00 1.295E-04

     total cpu time spent up to now is     3815.9 secs

     total energy              =   -2256.12889715 Ry
     estimated scf accuracy    <       0.00015905 Ry

     total magnetization       =     1.03 Bohr mag/cell
     absolute magnetization    =     6.24 Bohr mag/cell

     iteration #117     ecut=    60.00 Ry     beta= 0.40
     Davidson diagonalization with overlap
     ethr =  1.23E-07,  avg # of iterations =  2.0

     negative rho (up, down):  0.000E+00 1.284E-04

     total cpu time spent up to now is     3847.3 secs

     total energy              =   -2256.12890549 Ry
     estimated scf accuracy    <       0.00014102 Ry

     total magnetization       =     1.03 Bohr mag/cell
     absolute magnetization    =     6.24 Bohr mag/cell

     iteration #118     ecut=    60.00 Ry     beta= 0.40
     Davidson diagonalization with overlap
     ethr =  1.09E-07,  avg # of iterations =  2.0

     negative rho (up, down):  0.000E+00 1.292E-04

     total cpu time spent up to now is     3879.8 secs

     total energy              =   -2256.12896274 Ry
     estimated scf accuracy    <       0.00021278 Ry

     total magnetization       =     1.03 Bohr mag/cell
     absolute magnetization    =     6.24 Bohr mag/cell

     iteration #119     ecut=    60.00 Ry     beta= 0.40
     Davidson diagonalization with overlap
     ethr =  1.09E-07,  avg # of iterations =  1.9

     negative rho (up, down):  0.000E+00 1.295E-04

     total cpu time spent up to now is     3912.5 secs

     total energy              =   -2256.12903103 Ry
     estimated scf accuracy    <       0.00013667 Ry

     total magnetization       =     1.03 Bohr mag/cell
     absolute magnetization    =     6.24 Bohr mag/cell

     iteration #120     ecut=    60.00 Ry     beta= 0.40
     Davidson diagonalization with overlap
     ethr =  1.06E-07,  avg # of iterations =  2.6

     negative rho (up, down):  0.000E+00 1.298E-04

     total cpu time spent up to now is     3948.5 secs

     total energy              =   -2256.12925664 Ry
     estimated scf accuracy    <       0.00013912 Ry

     total magnetization       =     1.03 Bohr mag/cell
     absolute magnetization    =     6.25 Bohr mag/cell

     End of self-consistent calculation

     convergence NOT achieved after 120 iterations: stopping

     Writing config to output data dir ./out/mg2nih4_NbFeMg.save/ :
     XML data file, charge density
 
     init_run     :     21.94s CPU     24.27s WALL (       1 calls)
     electrons    :   3914.17s CPU   3923.94s WALL (       1 calls)

     Called by init_run:
     wfcinit      :     19.95s CPU     22.12s WALL (       1 calls)
     potinit      :      0.57s CPU      0.61s WALL (       1 calls)
     hinit0       :      0.70s CPU      0.72s WALL (       1 calls)

     Called by electrons:
     c_bands      :   3186.83s CPU   3195.61s WALL (     120 calls)
     sum_band     :    672.72s CPU    673.61s WALL (     120 calls)
     v_of_rho     :      1.57s CPU      1.58s WALL (     121 calls)
     newd         :     36.92s CPU     36.98s WALL (     121 calls)
     PAW_pot      :      9.64s CPU      9.65s WALL (     121 calls)
     mix_rho      :      3.21s CPU      3.23s WALL (     120 calls)
     energy_dftd3 :      0.57s CPU      0.57s WALL (       1 calls)

     Called by c_bands:
     init_us_2    :     54.35s CPU     54.44s WALL (   94864 calls)
     cegterg      :   2949.48s CPU   2957.06s WALL (   47040 calls)

     Called by *egterg:
     cdiaghg      :    651.80s CPU    690.29s WALL (  132765 calls)
                                      689.94s GPU  (  132765 calls)
     h_psi        :   1264.13s CPU   1270.13s WALL (  132765 calls)
     s_psi        :    172.12s CPU    172.71s WALL (  133157 calls)
     g_psi        :      3.61s CPU      3.62s WALL (   85333 calls)

     Called by h_psi:
     h_psi:calbec :      2.08s CPU      2.11s WALL (  132765 calls)
     vloc_psi     :    857.49s CPU    862.74s WALL (  132765 calls)
                                      862.40s GPU  (  132765 calls)
     add_vuspsi   :    231.92s CPU    232.94s WALL (  132765 calls)
     vhpsi        :    168.48s CPU    168.75s WALL (  132765 calls)

     General routines
     calbec       :    183.13s CPU    183.35s WALL (  360002 calls)
     fft          :      1.36s CPU      1.79s WALL (    3023 calls)
                                        0.44s GPU  (    2781 calls)
     ffts         :      0.51s CPU      0.53s WALL (     482 calls)
                                        0.02s GPU  (     240 calls)
     fftw         :      9.29s CPU    961.38s WALL ( 1284680 calls)
                                      957.96s GPU  ( 1284680 calls)
     interpolate  :      2.10s CPU      2.12s WALL (     242 calls)
     davcio       :      0.07s CPU      1.11s WALL (     410 calls)
 

     Hubbard U routines
     new_ns       :    215.43s CPU    215.55s WALL (     120 calls)
     vhpsi        :    168.48s CPU    168.75s WALL (  132765 calls)
 
     PWSCF        :      1h 5m CPU      1h 5m WALL

 
   This run was terminated on:  10:54:45  22May2026            

=------------------------------------------------------------------------------=
   JOB DONE.
=------------------------------------------------------------------------------=
