
     Program PWSCF v.7.5 starts on 22May2026 at  5:57:40 

     This program is part of the open-source Quantum ESPRESSO suite
     for quantum simulation of materials; please cite
         "P. Giannozzi et al., J. Phys.:Condens. Matter 21 395502 (2009);
         "P. Giannozzi et al., J. Phys.:Condens. Matter 29 465901 (2017);
         "P. Giannozzi et al., J. Chem. Phys. 152 154105 (2020);
          URL http://www.quantum-espresso.org", 
     in publications or presentations arising from this work. More details at
     http://www.quantum-espresso.org/quote

     Serial multi-threaded version, running on    1 processor cores
     36073 MiB available memory on the printing compute node when the environment starts
 
     Reading input from mg2ni_Nb.in
Warning: card &CELL ignored
Warning: card &FCP ignored
Warning: card &RISM ignored

     Current dimensions of program PWSCF are:
     Max number of different atomic species (ntypx) = 10
     Max number of k-points (npk) =  40000
     Max angular momentum in pseudopotentials (lmaxx) =  4
     file Nb.pbe-spn-kjpaw_psl.0.3.0.UPF: wavefunction(s)  4S 4P renormalized
     file Mg.pbe-n-kjpaw_psl.0.3.0.UPF: wavefunction(s)  3S renormalized
     Message from routine setup:
     using ibrav=0 with symmetry is DISCOURAGED, use correct ibrav instead
 
 
     G-vector sticks info
     --------------------
     sticks:   dense  smooth     PW     G-vecs:    dense   smooth      PW
     Sum        3205    1597    439               370373   130803   19151
 
     Using Slab Decomposition
 


     bravais-lattice index     =            0
     lattice parameter (alat)  =       9.8218  a.u.
     unit-cell volume          =    2084.3061 (a.u.)^3
     number of atoms/cell      =           18
     number of atomic types    =            3
     number of electrons       =       143.00
     number of Kohn-Sham states=           86
     kinetic-energy cutoff     =      60.0000  Ry
     charge density cutoff     =     480.0000  Ry
     scf convergence threshold =      1.2E-09
     mixing beta               =       0.4000
     number of iterations used =            8  plain     mixing
     Exchange-correlation=  SLA  PW   PBX  PBC
                           (   1   4   3   4   0   0   0)

     GPU acceleration is ACTIVE.  1 visible GPUs per MPI rank

     Hubbard projectors: ortho-atomic
     Hubbard parameters of DFT+U (Dudarev formulation) in eV:
     U(Ni-3d) =  9.0000

     Internal variables: lda_plus_u = T, lda_plus_u_kind = 0

     Internal variables: orbital_resolved = F, hub_pot_fix = F, apply_U =  F

     celldm(1)=   9.821759  celldm(2)=   0.000000  celldm(3)=   0.000000
     celldm(4)=   0.000000  celldm(5)=   0.000000  celldm(6)=   0.000000

     crystal axes: (cart. coord. in units of alat)
               a(1) = (   1.000000   0.000000   0.000000 )  
               a(2) = (  -0.500000   0.866025   0.000000 )  
               a(3) = (   0.000000   0.000000   2.540171 )  

     reciprocal axes: (cart. coord. in units 2 pi/alat)
               b(1) = (  1.000000  0.577350 -0.000000 )  
               b(2) = (  0.000000  1.154701  0.000000 )  
               b(3) = (  0.000000 -0.000000  0.393674 )  


     PseudoPot. # 1 for Nb read from file:
     ../pseudo/Nb.pbe-spn-kjpaw_psl.0.3.0.UPF
     MD5 check sum: 411d72ad547312f8017e2943ceca08cc
     Pseudo is Projector augmented-wave + core cor, Zval = 13.0
     Generated using "atomic" code by A. Dal Corso  v.5.0.99 svn rev. 10869
     Shape of augmentation charge: PSQ
     Using radial grid of 1227 points,  6 beta functions with: 
                l(1) =   0
                l(2) =   0
                l(3) =   1
                l(4) =   1
                l(5) =   2
                l(6) =   2
     Q(r) pseudized with 0 coefficients 


     PseudoPot. # 2 for Mg read from file:
     ../pseudo/Mg.pbe-n-kjpaw_psl.0.3.0.UPF
     MD5 check sum: 24ecedc7f3e3cbe212e682f4413594e4
     Pseudo is Projector augmented-wave + core cor, Zval =  2.0
     Generated using "atomic" code by A. Dal Corso  v.5.0.99 svn rev. 10869
     Shape of augmentation charge: PSQ
     Using radial grid of 1129 points,  4 beta functions with: 
                l(1) =   0
                l(2) =   0
                l(3) =   1
                l(4) =   1
     Q(r) pseudized with 0 coefficients 


     PseudoPot. # 3 for Ni read from file:
     ../pseudo/ni_pbe_v1.4.uspp.F.UPF
     MD5 check sum: 1ee80287db30b12d2bc1f57a5b5d6409
     Pseudo is Ultrasoft + core correction, Zval = 18.0
     Generated by new atomic code, or converted to UPF format
     Using radial grid of  865 points,  6 beta functions with: 
                l(1) =   0
                l(2) =   0
                l(3) =   1
                l(4) =   1
                l(5) =   2
                l(6) =   2
     Q(r) pseudized with 10 coefficients,  rinner =    0.980   0.980   0.980
                                                       0.980   0.980

     atomic species   valence    mass     pseudopotential
     Nb               13.00    92.90637     Nb( 1.00)
     Mg                2.00    24.30500     Mg( 1.00)
     Ni               18.00    58.69340     Ni( 1.00)

      2 Sym. Ops. (no inversion) found ( 1 have fractional translation)



   Cartesian axes

     site n.     atom                  positions (alat units)
         1        Nb     tau(   1) = (  -0.2534639   0.7236877   2.1168096  )
         2        Mg     tau(   2) = (   0.0000000   0.2846753   1.2700857  )
         3        Mg     tau(   3) = (   0.7534639   0.1423377   2.1168096  )
         4        Mg     tau(   4) = (   0.5000000   0.5813501   1.2700857  )
         5        Mg     tau(   5) = (   0.2534639   0.7236877   0.4233619  )
         6        Mg     tau(   6) = (   0.2465361   0.1423377   0.4233619  )
         7        Mg     tau(   7) = (   0.2500000   0.4330127   1.8222430  )
         8        Mg     tau(   8) = (   0.5000000   0.0000000   1.5646523  )
         9        Mg     tau(   9) = (   0.2500000   0.4330127   2.4113762  )
        10        Mg     tau(  10) = (   0.5000000   0.0000000   0.9755192  )
        11        Mg     tau(  11) = (   0.7500000   0.4330127   0.7179285  )
        12        Mg     tau(  12) = (   0.7500000   0.4330127   0.1287953  )
        13        Ni     tau(  13) = (   0.2500000   0.4330127   0.8467238  )
        14        Ni     tau(  14) = (   0.5000000   0.0000000   0.0000000  )
        15        Ni     tau(  15) = (   0.7500000   0.4330127   1.6934477  )
        16        Ni     tau(  16) = (   0.0000000   0.0000000   0.8467238  )
        17        Ni     tau(  17) = (   0.0000000   0.0000000   0.0000000  )
        18        Ni     tau(  18) = (   0.0000000   0.0000000   1.6934477  )

     --------------------------------------------
     DFT-D3 Dispersion Correction (3-body terms):
     --------------------------------------------
       Reference C6 values for interpolation: 

         atom   Coordination number   C6
         Mg         0.000          1366.75
         Mg         0.963           902.54
         Mg         1.950           351.12
         Ni         0.000          1149.49
         Ni         1.794           356.66
         Ni         6.546           257.56
         Ni         6.292           283.75
         Nb         0.000          2950.50
         Nb         1.954          1161.16
         Nb         2.922           857.79

       Values used:

         atom   Coordination number  R0_AB[au]  C6      C8
         Nb        11.462            3.647    857.79 111659.18
         Mg        10.189            3.292    351.12  31436.69
         Mg        10.343            3.292    351.12  31436.69
         Mg        10.191            3.292    351.12  31436.69
         Mg        10.189            3.292    351.12  31436.69
         Mg        10.191            3.292    351.12  31436.69
         Mg        10.497            3.292    351.12  31436.69
         Mg        10.273            3.292    351.12  31436.69
         Mg        10.497            3.292    351.12  31436.69
         Mg        10.166            3.292    351.12  31436.69
         Mg        10.166            3.292    351.12  31436.69
         Mg        10.273            3.292    351.12  31436.69
         Ni         8.139            3.162    258.29  21642.43
         Ni         8.194            3.162    258.21  21636.23
         Ni         8.194            3.162    258.21  21636.23
         Ni         8.190            3.162    258.22  21636.69
         Ni         8.240            3.162    258.15  21631.51
         Ni         8.240            3.162    258.15  21631.51

         Molecular C6 ( Ry / a.u.^6 ) =    109217.57


     number of k points=    78  Marzari-Vanderbilt smearing, width (Ry)=  0.0100
                       cart. coord. in units 2pi/alat
        k(    1) = (   0.0000000   0.0000000   0.0000000), wk =   0.0078125
        k(    2) = (   0.0000000   0.0000000   0.0984186), wk =   0.0156250
        k(    3) = (   0.0000000   0.0000000  -0.1968371), wk =   0.0078125
        k(    4) = (   0.0000000   0.1443376   0.0000000), wk =   0.0312500
        k(    5) = (   0.0000000   0.1443376   0.0984186), wk =   0.0312500
        k(    6) = (   0.0000000   0.1443376  -0.1968371), wk =   0.0312500
        k(    7) = (   0.0000000   0.2886751   0.0000000), wk =   0.0312500
        k(    8) = (   0.0000000   0.2886751   0.0984186), wk =   0.0312500
        k(    9) = (   0.0000000   0.2886751  -0.1968371), wk =   0.0312500
        k(   10) = (   0.0000000   0.4330127   0.0000000), wk =   0.0312500
        k(   11) = (   0.0000000   0.4330127   0.0984186), wk =   0.0312500
        k(   12) = (   0.0000000   0.4330127  -0.1968371), wk =   0.0312500
        k(   13) = (   0.0000000  -0.5773503   0.0000000), wk =   0.0156250
        k(   14) = (   0.0000000  -0.5773503   0.0984186), wk =   0.0312500
        k(   15) = (   0.0000000  -0.5773503  -0.1968371), wk =   0.0156250
        k(   16) = (   0.1250000   0.2165064   0.0000000), wk =   0.0156250
        k(   17) = (   0.1250000   0.2165064   0.0984186), wk =   0.0156250
        k(   18) = (   0.1250000   0.2165064  -0.1968371), wk =   0.0156250
        k(   19) = (   0.1250000   0.3608439   0.0000000), wk =   0.0312500
        k(   20) = (   0.1250000   0.3608439   0.0984186), wk =   0.0312500
        k(   21) = (   0.1250000   0.3608439  -0.1968371), wk =   0.0312500
        k(   22) = (   0.1250000   0.5051815   0.0000000), wk =   0.0312500
        k(   23) = (   0.1250000   0.5051815   0.0984186), wk =   0.0312500
        k(   24) = (   0.1250000   0.5051815  -0.1968371), wk =   0.0312500
        k(   25) = (   0.2500000   0.4330127   0.0000000), wk =   0.0156250
        k(   26) = (   0.2500000   0.4330127   0.0984186), wk =   0.0156250
        k(   27) = (   0.2500000   0.4330127  -0.1968371), wk =   0.0156250
        k(   28) = (   0.2500000   0.5773503   0.0000000), wk =   0.0312500
        k(   29) = (   0.2500000   0.5773503   0.0984186), wk =   0.0312500
        k(   30) = (   0.2500000   0.5773503  -0.1968371), wk =   0.0312500
        k(   31) = (  -0.1250000   0.0721688   0.0000000), wk =   0.0156250
        k(   32) = (   0.0000000   0.1443376  -0.0984186), wk =   0.0312500
        k(   33) = (  -0.1250000   0.0721688   0.0984186), wk =   0.0312500
        k(   34) = (  -0.1250000   0.0721688  -0.1968371), wk =   0.0156250
        k(   35) = (  -0.2500000   0.1443376   0.0000000), wk =   0.0156250
        k(   36) = (   0.0000000   0.2886751  -0.0984186), wk =   0.0312500
        k(   37) = (  -0.2500000   0.1443376   0.0984186), wk =   0.0312500
        k(   38) = (  -0.2500000   0.1443376  -0.1968371), wk =   0.0156250
        k(   39) = (  -0.3750000   0.2165064   0.0000000), wk =   0.0156250
        k(   40) = (   0.0000000   0.4330127  -0.0984186), wk =   0.0312500
        k(   41) = (  -0.3750000   0.2165064   0.0984186), wk =   0.0312500
        k(   42) = (  -0.3750000   0.2165064  -0.1968371), wk =   0.0156250
        k(   43) = (   0.5000000  -0.2886751   0.0000000), wk =   0.0078125
        k(   44) = (   0.5000000  -0.2886751   0.0984186), wk =   0.0156250
        k(   45) = (   0.5000000  -0.2886751  -0.1968371), wk =   0.0078125
        k(   46) = (  -0.1250000   0.2165064   0.0000000), wk =   0.0312500
        k(   47) = (  -0.1250000   0.2165064  -0.0984186), wk =   0.0312500
        k(   48) = (   0.1250000  -0.2165064  -0.0984186), wk =   0.0312500
        k(   49) = (  -0.1250000  -0.2165064   0.0984186), wk =   0.0156250
        k(   50) = (  -0.1250000   0.2165064   0.1968371), wk =   0.0312500
        k(   51) = (  -0.1250000   0.3608439   0.0000000), wk =   0.0312500
        k(   52) = (  -0.2500000   0.2886751   0.0000000), wk =   0.0312500
        k(   53) = (  -0.1250000   0.3608439  -0.0984186), wk =   0.0312500
        k(   54) = (   0.1250000  -0.3608439  -0.0984186), wk =   0.0312500
        k(   55) = (  -0.2500000   0.2886751   0.0984186), wk =   0.0312500
        k(   56) = (   0.2500000  -0.2886751   0.0984186), wk =   0.0312500
        k(   57) = (  -0.1250000  -0.3608439   0.0984186), wk =   0.0312500
        k(   58) = (  -0.1250000   0.3608439   0.1968371), wk =   0.0312500
        k(   59) = (  -0.2500000   0.2886751  -0.1968371), wk =   0.0312500
        k(   60) = (  -0.1250000   0.5051815   0.0000000), wk =   0.0312500
        k(   61) = (  -0.3750000   0.3608439   0.0000000), wk =   0.0312500
        k(   62) = (  -0.1250000   0.5051815  -0.0984186), wk =   0.0312500
        k(   63) = (   0.1250000  -0.5051815  -0.0984186), wk =   0.0312500
        k(   64) = (  -0.3750000   0.3608439   0.0984186), wk =   0.0312500
        k(   65) = (   0.3750000  -0.3608439   0.0984186), wk =   0.0312500
        k(   66) = (  -0.1250000  -0.5051815   0.0984186), wk =   0.0312500
        k(   67) = (  -0.1250000   0.5051815   0.1968371), wk =   0.0312500
        k(   68) = (  -0.3750000   0.3608439  -0.1968371), wk =   0.0312500
        k(   69) = (  -0.2500000   0.4330127   0.0000000), wk =   0.0312500
        k(   70) = (  -0.2500000   0.4330127  -0.0984186), wk =   0.0312500
        k(   71) = (   0.2500000  -0.4330127  -0.0984186), wk =   0.0312500
        k(   72) = (  -0.2500000  -0.4330127   0.0984186), wk =   0.0156250
        k(   73) = (  -0.2500000   0.4330127   0.1968371), wk =   0.0312500
        k(   74) = (  -0.3750000   0.5051815   0.0000000), wk =   0.0156250
        k(   75) = (   0.2500000  -0.5773503  -0.0984186), wk =   0.0312500
        k(   76) = (  -0.3750000   0.5051815   0.0984186), wk =   0.0156250
        k(   77) = (   0.3750000  -0.5051815   0.0984186), wk =   0.0156250
        k(   78) = (  -0.3750000   0.5051815  -0.1968371), wk =   0.0156250

     Dense  grid:   370373 G-vectors     FFT dimensions: (  72,  72, 180)

     Smooth grid:   130803 G-vectors     FFT dimensions: (  50,  50, 135)

     Estimated max dynamical RAM per process >       3.72 GB

     Check: negative core charge=   -0.000002

     Initial potential from superposition of free atoms

     starting charge     130.9877, renormalised to     143.0000

     STARTING HUBBARD OCCUPATIONS:

     =================== HUBBARD OCCUPATIONS ===================
     ------------------------ ATOM   13 ------------------------
     Tr[ns( 13)] =   8.00000
     eigenvalues:
       0.800  0.800  0.800  0.800  0.800
     eigenvectors (columns):
       1.000  0.000  0.000  0.000  0.000
       0.000  1.000  0.000  0.000  0.000
       0.000  0.000  1.000  0.000  0.000
       0.000  0.000  0.000  1.000  0.000
       0.000  0.000  0.000  0.000  1.000
     occupation matrix ns (before diag.):
       0.800  0.000  0.000  0.000  0.000
       0.000  0.800  0.000  0.000  0.000
       0.000  0.000  0.800  0.000  0.000
       0.000  0.000  0.000  0.800  0.000
       0.000  0.000  0.000  0.000  0.800
     ------------------------ ATOM   14 ------------------------
     Tr[ns( 14)] =   8.00000
     eigenvalues:
       0.800  0.800  0.800  0.800  0.800
     eigenvectors (columns):
       1.000  0.000  0.000  0.000  0.000
       0.000  1.000  0.000  0.000  0.000
       0.000  0.000  1.000  0.000  0.000
       0.000  0.000  0.000  1.000  0.000
       0.000  0.000  0.000  0.000  1.000
     occupation matrix ns (before diag.):
       0.800  0.000  0.000  0.000  0.000
       0.000  0.800  0.000  0.000  0.000
       0.000  0.000  0.800  0.000  0.000
       0.000  0.000  0.000  0.800  0.000
       0.000  0.000  0.000  0.000  0.800
     ------------------------ ATOM   15 ------------------------
     Tr[ns( 15)] =   8.00000
     eigenvalues:
       0.800  0.800  0.800  0.800  0.800
     eigenvectors (columns):
       1.000  0.000  0.000  0.000  0.000
       0.000  1.000  0.000  0.000  0.000
       0.000  0.000  1.000  0.000  0.000
       0.000  0.000  0.000  1.000  0.000
       0.000  0.000  0.000  0.000  1.000
     occupation matrix ns (before diag.):
       0.800  0.000  0.000  0.000  0.000
       0.000  0.800  0.000  0.000  0.000
       0.000  0.000  0.800  0.000  0.000
       0.000  0.000  0.000  0.800  0.000
       0.000  0.000  0.000  0.000  0.800
     ------------------------ ATOM   16 ------------------------
     Tr[ns( 16)] =   8.00000
     eigenvalues:
       0.800  0.800  0.800  0.800  0.800
     eigenvectors (columns):
       1.000  0.000  0.000  0.000  0.000
       0.000  1.000  0.000  0.000  0.000
       0.000  0.000  1.000  0.000  0.000
       0.000  0.000  0.000  1.000  0.000
       0.000  0.000  0.000  0.000  1.000
     occupation matrix ns (before diag.):
       0.800  0.000  0.000  0.000  0.000
       0.000  0.800  0.000  0.000  0.000
       0.000  0.000  0.800  0.000  0.000
       0.000  0.000  0.000  0.800  0.000
       0.000  0.000  0.000  0.000  0.800
     ------------------------ ATOM   17 ------------------------
     Tr[ns( 17)] =   8.00000
     eigenvalues:
       0.800  0.800  0.800  0.800  0.800
     eigenvectors (columns):
       1.000  0.000  0.000  0.000  0.000
       0.000  1.000  0.000  0.000  0.000
       0.000  0.000  1.000  0.000  0.000
       0.000  0.000  0.000  1.000  0.000
       0.000  0.000  0.000  0.000  1.000
     occupation matrix ns (before diag.):
       0.800  0.000  0.000  0.000  0.000
       0.000  0.800  0.000  0.000  0.000
       0.000  0.000  0.800  0.000  0.000
       0.000  0.000  0.000  0.800  0.000
       0.000  0.000  0.000  0.000  0.800
     ------------------------ ATOM   18 ------------------------
     Tr[ns( 18)] =   8.00000
     eigenvalues:
       0.800  0.800  0.800  0.800  0.800
     eigenvectors (columns):
       1.000  0.000  0.000  0.000  0.000
       0.000  1.000  0.000  0.000  0.000
       0.000  0.000  1.000  0.000  0.000
       0.000  0.000  0.000  1.000  0.000
       0.000  0.000  0.000  0.000  1.000
     occupation matrix ns (before diag.):
       0.800  0.000  0.000  0.000  0.000
       0.000  0.800  0.000  0.000  0.000
       0.000  0.000  0.800  0.000  0.000
       0.000  0.000  0.000  0.800  0.000
       0.000  0.000  0.000  0.000  0.800

     Number of occupied Hubbard levels =   48.0000

     Atomic wfc used for Hubbard projectors are orthogonalized

     Starting wfcs are  132 randomized atomic wfcs

     total cpu time spent up to now is        7.3 secs

     Self-consistent Calculation

     iteration #  1     ecut=    60.00 Ry     beta= 0.40
     Davidson diagonalization with overlap
     ethr =  1.00E-02,  avg # of iterations =  6.8

     =================== HUBBARD OCCUPATIONS ===================
     ------------------------ ATOM   13 ------------------------
     Tr[ns( 13)] =   2.72468
     eigenvalues:
       0.261  0.266  0.277  0.278  0.281
     eigenvectors (columns):
      -0.233 -0.881 -0.411  0.000 -0.000
      -0.481  0.136 -0.018  0.202  0.842
      -0.833  0.235 -0.032 -0.116 -0.486
       0.072  0.193 -0.455  0.842 -0.202
      -0.125 -0.335  0.789  0.486 -0.116
     occupation matrix ns (before diag.):
       0.267 -0.000 -0.001  0.002 -0.004
      -0.000  0.276 -0.008 -0.000 -0.001
      -0.001 -0.008  0.266  0.001 -0.001
       0.002 -0.000  0.001  0.278  0.002
      -0.004 -0.001 -0.001  0.002  0.276
     ------------------------ ATOM   14 ------------------------
     Tr[ns( 14)] =   0.60620
     eigenvalues:
       0.047  0.051  0.062  0.067  0.076
     eigenvectors (columns):
       0.635  0.250  0.412  0.599 -0.077
      -0.518  0.181 -0.352  0.737  0.179
      -0.548  0.328  0.762 -0.087 -0.059
      -0.142 -0.886  0.302  0.294 -0.132
       0.093 -0.114  0.185 -0.054  0.970
     occupation matrix ns (before diag.):
       0.057  0.007  0.004  0.005 -0.002
       0.007  0.061 -0.006  0.001  0.003
       0.004 -0.006  0.056  0.002  0.000
       0.005  0.001  0.002  0.054 -0.003
      -0.002  0.003  0.000 -0.003  0.075
     ------------------------ ATOM   15 ------------------------
     Tr[ns( 15)] =   0.60620
     eigenvalues:
       0.047  0.051  0.062  0.067  0.076
     eigenvectors (columns):
      -0.635  0.250 -0.412 -0.599  0.077
       0.216  0.193 -0.836  0.444  0.140
       0.722  0.321 -0.077 -0.595 -0.125
       0.010  0.542  0.311  0.101  0.774
      -0.169  0.710  0.169  0.282 -0.599
     occupation matrix ns (before diag.):
       0.057  0.000  0.008 -0.001 -0.005
       0.000  0.062 -0.005  0.000 -0.002
       0.008 -0.005  0.055 -0.004 -0.001
      -0.001  0.000 -0.004  0.067 -0.011
      -0.005 -0.002 -0.001 -0.011  0.061
     ------------------------ ATOM   16 ------------------------
     Tr[ns( 16)] =   2.79692
     eigenvalues:
       0.264  0.273  0.278  0.280  0.303
     eigenvectors (columns):
       0.103  0.070  0.000  0.000 -0.992
      -0.472  0.160  0.732 -0.462 -0.038
      -0.818  0.277 -0.423  0.267 -0.066
      -0.156 -0.472 -0.462 -0.732 -0.050
       0.270  0.818 -0.267 -0.423  0.086
     occupation matrix ns (before diag.):
       0.303  0.002  0.003  0.002 -0.003
       0.002  0.275 -0.006  0.000  0.001
       0.003 -0.006  0.269 -0.001  0.001
       0.002  0.000 -0.001  0.278  0.003
      -0.003  0.001  0.001  0.003  0.274
     ------------------------ ATOM   17 ------------------------
     Tr[ns( 17)] =   0.61258
     eigenvalues:
       0.048  0.049  0.061  0.073  0.076
     eigenvectors (columns):
       0.232  0.438  0.315  0.699  0.407
       0.477  0.162  0.664 -0.552 -0.011
      -0.732 -0.222  0.639  0.071  0.040
       0.398 -0.856  0.121  0.234  0.198
      -0.156  0.002 -0.191 -0.382  0.891
     occupation matrix ns (before diag.):
       0.066 -0.007  0.004  0.007  0.003
      -0.007  0.062  0.005 -0.002  0.003
       0.004  0.005  0.054  0.002 -0.001
       0.007 -0.002  0.002  0.051  0.002
       0.003  0.003 -0.001  0.002  0.074
     ------------------------ ATOM   18 ------------------------
     Tr[ns( 18)] =   0.61258
     eigenvalues:
       0.048  0.049  0.061  0.073  0.076
     eigenvectors (columns):
       0.232 -0.438  0.315 -0.699  0.407
      -0.872  0.273  0.221 -0.337  0.040
       0.047 -0.030  0.895  0.443  0.010
      -0.064 -0.426  0.105 -0.214 -0.870
      -0.423 -0.742 -0.200  0.394  0.274
     occupation matrix ns (before diag.):
       0.066  0.007 -0.004 -0.006 -0.004
       0.007  0.052 -0.001  0.001 -0.004
      -0.004 -0.001  0.064 -0.001  0.002
      -0.006  0.001 -0.001  0.070 -0.009
      -0.004 -0.004  0.002 -0.009  0.055

     Number of occupied Hubbard levels =    7.9592

     total cpu time spent up to now is       23.0 secs

     total energy              =   -2545.46980979 Ry
     estimated scf accuracy    <     450.81516025 Ry

     iteration #  2     ecut=    60.00 Ry     beta= 0.40
     Davidson diagonalization with overlap
     ethr =  1.00E-02,  avg # of iterations =  8.2

     total cpu time spent up to now is       42.9 secs

     total energy              =   -2692.09244496 Ry
     estimated scf accuracy    <    1014.35139544 Ry

     iteration #  3     ecut=    60.00 Ry     beta= 0.40
     Davidson diagonalization with overlap
     ethr =  1.00E-02,  avg # of iterations =  9.2

     total cpu time spent up to now is       62.3 secs

     total energy              =   -2759.29252376 Ry
     estimated scf accuracy    <     239.35788160 Ry

     iteration #  4     ecut=    60.00 Ry     beta= 0.40
     Davidson diagonalization with overlap
     ethr =  1.00E-02,  avg # of iterations =  5.8

     total cpu time spent up to now is       75.4 secs

     total energy              =   -2770.48712515 Ry
     estimated scf accuracy    <     119.46696077 Ry

     iteration #  5     ecut=    60.00 Ry     beta= 0.40
     Davidson diagonalization with overlap
     ethr =  1.00E-02,  avg # of iterations =  1.6

     total cpu time spent up to now is       82.9 secs

     total energy              =   -2769.41828744 Ry
     estimated scf accuracy    <      74.90970022 Ry

     iteration #  6     ecut=    60.00 Ry     beta= 0.40
     Davidson diagonalization with overlap
     ethr =  1.00E-02,  avg # of iterations =  1.0

     total cpu time spent up to now is       89.2 secs

     total energy              =   -2762.32682104 Ry
     estimated scf accuracy    <      67.66884693 Ry

     iteration #  7     ecut=    60.00 Ry     beta= 0.40
     Davidson diagonalization with overlap
     ethr =  1.00E-02,  avg # of iterations =  2.3

     total cpu time spent up to now is       97.5 secs

     total energy              =   -2756.83750801 Ry
     estimated scf accuracy    <      29.57550832 Ry

     iteration #  8     ecut=    60.00 Ry     beta= 0.40
     Davidson diagonalization with overlap
     ethr =  1.00E-02,  avg # of iterations =  4.1

     total cpu time spent up to now is      108.4 secs

     total energy              =   -2763.43196316 Ry
     estimated scf accuracy    <      32.70307106 Ry

     iteration #  9     ecut=    60.00 Ry     beta= 0.40
     Davidson diagonalization with overlap
     ethr =  1.00E-02,  avg # of iterations =  1.2

     total cpu time spent up to now is      115.1 secs

     total energy              =   -2763.24414829 Ry
     estimated scf accuracy    <      44.46083607 Ry

     iteration # 10     ecut=    60.00 Ry     beta= 0.40
     Davidson diagonalization with overlap
     ethr =  1.00E-02,  avg # of iterations =  1.0

     total cpu time spent up to now is      121.3 secs

     total energy              =   -2758.65146167 Ry
     estimated scf accuracy    <      22.83220090 Ry

     iteration # 11     ecut=    60.00 Ry     beta= 0.40
     Davidson diagonalization with overlap
     ethr =  1.00E-02,  avg # of iterations =  2.1

     total cpu time spent up to now is      129.2 secs

     total energy              =   -2762.28697580 Ry
     estimated scf accuracy    <       9.16921337 Ry

     iteration # 12     ecut=    60.00 Ry     beta= 0.40
     Davidson diagonalization with overlap
     ethr =  6.41E-03,  avg # of iterations =  1.0

     total cpu time spent up to now is      135.5 secs

     total energy              =   -2762.28671484 Ry
     estimated scf accuracy    <       4.96901388 Ry

     iteration # 13     ecut=    60.00 Ry     beta= 0.40
     Davidson diagonalization with overlap
     ethr =  3.47E-03,  avg # of iterations =  1.0

     total cpu time spent up to now is      141.7 secs

     total energy              =   -2762.32057427 Ry
     estimated scf accuracy    <       0.74273930 Ry

     iteration # 14     ecut=    60.00 Ry     beta= 0.40
     Davidson diagonalization with overlap
     ethr =  5.19E-04,  avg # of iterations =  1.3

     total cpu time spent up to now is      148.6 secs

     total energy              =   -2762.33956184 Ry
     estimated scf accuracy    <       0.15373005 Ry

     iteration # 15     ecut=    60.00 Ry     beta= 0.40
     Davidson diagonalization with overlap
     ethr =  1.08E-04,  avg # of iterations =  4.0

     total cpu time spent up to now is      160.7 secs

     total energy              =   -2762.34050743 Ry
     estimated scf accuracy    <       0.08476817 Ry

     iteration # 16     ecut=    60.00 Ry     beta= 0.40
     Davidson diagonalization with overlap
     ethr =  5.93E-05,  avg # of iterations =  3.3

     total cpu time spent up to now is      171.9 secs

     total energy              =   -2762.34540195 Ry
     estimated scf accuracy    <       0.04473867 Ry

     iteration # 17     ecut=    60.00 Ry     beta= 0.40
     Davidson diagonalization with overlap
     ethr =  3.13E-05,  avg # of iterations =  2.7

     total cpu time spent up to now is      181.6 secs

     total energy              =   -2762.34641473 Ry
     estimated scf accuracy    <       0.04629100 Ry

     iteration # 18     ecut=    60.00 Ry     beta= 0.40
     Davidson diagonalization with overlap
     ethr =  3.13E-05,  avg # of iterations =  1.0

     total cpu time spent up to now is      187.9 secs

     total energy              =   -2762.34448838 Ry
     estimated scf accuracy    <       0.02924169 Ry

     iteration # 19     ecut=    60.00 Ry     beta= 0.40
     Davidson diagonalization with overlap
     ethr =  2.04E-05,  avg # of iterations =  2.3

     total cpu time spent up to now is      196.4 secs

     total energy              =   -2762.34688178 Ry
     estimated scf accuracy    <       0.00506983 Ry

     iteration # 20     ecut=    60.00 Ry     beta= 0.40
     Davidson diagonalization with overlap
     c_bands:  1 eigenvalues not converged
     ethr =  3.55E-06,  avg # of iterations =  7.6

     total cpu time spent up to now is      212.3 secs

     total energy              =   -2762.34826964 Ry
     estimated scf accuracy    <       0.00041554 Ry

     iteration # 21     ecut=    60.00 Ry     beta= 0.40
     Davidson diagonalization with overlap
     ethr =  2.91E-07,  avg # of iterations =  5.7

     total cpu time spent up to now is      226.0 secs

     total energy              =   -2762.34868665 Ry
     estimated scf accuracy    <       0.00022602 Ry

     iteration # 22     ecut=    60.00 Ry     beta= 0.40
     Davidson diagonalization with overlap
     ethr =  1.58E-07,  avg # of iterations =  2.2

     total cpu time spent up to now is      233.7 secs

     total energy              =   -2762.34872240 Ry
     estimated scf accuracy    <       0.00004143 Ry

     iteration # 23     ecut=    60.00 Ry     beta= 0.40
     Davidson diagonalization with overlap
     ethr =  2.90E-08,  avg # of iterations =  4.7

     total cpu time spent up to now is      245.3 secs

     total energy              =   -2762.34874113 Ry
     estimated scf accuracy    <       0.00000793 Ry

     iteration # 24     ecut=    60.00 Ry     beta= 0.40
     Davidson diagonalization with overlap
     ethr =  5.55E-09,  avg # of iterations =  3.9

     total cpu time spent up to now is      255.7 secs

     total energy              =   -2762.34874503 Ry
     estimated scf accuracy    <       0.00000254 Ry

     iteration # 25     ecut=    60.00 Ry     beta= 0.40
     Davidson diagonalization with overlap
     ethr =  1.78E-09,  avg # of iterations =  3.6

     total cpu time spent up to now is      265.6 secs

     total energy              =   -2762.34874570 Ry
     estimated scf accuracy    <       0.00000079 Ry

     iteration # 26     ecut=    60.00 Ry     beta= 0.40
     Davidson diagonalization with overlap
     ethr =  5.52E-10,  avg # of iterations =  4.9

     total cpu time spent up to now is      276.8 secs

     total energy              =   -2762.34874593 Ry
     estimated scf accuracy    <       0.00000021 Ry

     iteration # 27     ecut=    60.00 Ry     beta= 0.40
     Davidson diagonalization with overlap
     ethr =  1.49E-10,  avg # of iterations =  5.7

     total cpu time spent up to now is      289.1 secs

     total energy              =   -2762.34874600 Ry
     estimated scf accuracy    <       0.00000035 Ry

     iteration # 28     ecut=    60.00 Ry     beta= 0.40
     Davidson diagonalization with overlap
     ethr =  1.49E-10,  avg # of iterations =  2.5

     total cpu time spent up to now is      297.3 secs

     total energy              =   -2762.34874603 Ry
     estimated scf accuracy    <       0.00000010 Ry

     iteration # 29     ecut=    60.00 Ry     beta= 0.40
     Davidson diagonalization with overlap
     ethr =  6.96E-11,  avg # of iterations =  2.6

     total cpu time spent up to now is      305.7 secs

     total energy              =   -2762.34874605 Ry
     estimated scf accuracy    <       0.00000001 Ry

     iteration # 30     ecut=    60.00 Ry     beta= 0.40
     Davidson diagonalization with overlap
     ethr =  7.85E-12,  avg # of iterations =  7.8

     total cpu time spent up to now is      321.6 secs

     total energy              =   -2762.34874606 Ry
     estimated scf accuracy    <          5.3E-09 Ry

     iteration # 31     ecut=    60.00 Ry     beta= 0.40
     Davidson diagonalization with overlap
     ethr =  3.73E-12,  avg # of iterations =  2.6

     total cpu time spent up to now is      329.7 secs

     total energy              =   -2762.34874606 Ry
     estimated scf accuracy    <          6.6E-09 Ry

     iteration # 32     ecut=    60.00 Ry     beta= 0.40
     Davidson diagonalization with overlap
     ethr =  3.73E-12,  avg # of iterations =  1.0

     total cpu time spent up to now is      335.9 secs

     End of self-consistent calculation

     =================== HUBBARD OCCUPATIONS ===================
     ------------------------ ATOM   13 ------------------------
     Tr[ns( 13)] =   9.09984
     eigenvalues:
       0.865  0.912  0.917  0.927  0.928
     eigenvectors (columns):
      -0.531 -0.847  0.000  0.000  0.010
      -0.002  0.007  0.864  0.060  0.500
      -0.004  0.013 -0.499 -0.035  0.866
      -0.424  0.265 -0.060  0.864 -0.006
       0.734 -0.460 -0.035  0.499  0.010
     occupation matrix ns (before diag.):
       0.899  0.000  0.000 -0.010  0.018
       0.000  0.920  0.005  0.000  0.000
       0.000  0.005  0.925 -0.000  0.000
      -0.010  0.000 -0.000  0.915  0.021
       0.018  0.000  0.000  0.021  0.891
     ------------------------ ATOM   14 ------------------------
     Tr[ns( 14)] =   9.05200
     eigenvalues:
       0.843  0.907  0.914  0.927  0.936
     eigenvectors (columns):
      -0.667  0.688  0.200  0.205  0.008
      -0.053 -0.184 -0.421  0.845  0.268
       0.141  0.446 -0.707 -0.367  0.383
       0.729  0.534  0.269  0.322 -0.084
       0.031 -0.093  0.459 -0.069  0.880
     occupation matrix ns (before diag.):
       0.879  0.001  0.004  0.033  0.002
       0.001  0.924 -0.001  0.006  0.004
       0.004 -0.001  0.916 -0.011  0.008
       0.033  0.006 -0.011  0.875 -0.003
       0.002  0.004  0.008 -0.003  0.931
     ------------------------ ATOM   15 ------------------------
     Tr[ns( 15)] =   9.05200
     eigenvalues:
       0.843  0.907  0.914  0.927  0.936
     eigenvectors (columns):
       0.667 -0.688 -0.200 -0.205 -0.008
      -0.149 -0.479  0.402  0.741 -0.197
      -0.025 -0.064  0.718 -0.549 -0.423
       0.391  0.186  0.532  0.102  0.720
       0.616  0.509  0.004  0.314 -0.513
     occupation matrix ns (before diag.):
       0.879  0.003  0.002 -0.018 -0.027
       0.003  0.919 -0.004  0.003  0.013
       0.002 -0.004  0.922 -0.007  0.004
      -0.018  0.003 -0.007  0.914 -0.026
      -0.027  0.013  0.004 -0.026  0.892
     ------------------------ ATOM   16 ------------------------
     Tr[ns( 16)] =   9.11132
     eigenvalues:
       0.866  0.914  0.917  0.929  0.929
     eigenvectors (columns):
      -0.474 -0.877  0.000 -0.000 -0.071
       0.006  0.037  0.865  0.031 -0.499
       0.010  0.065 -0.500 -0.018 -0.864
      -0.440  0.237 -0.031  0.865  0.013
       0.762 -0.410 -0.018  0.500 -0.022
     occupation matrix ns (before diag.):
       0.903  0.001  0.001 -0.010  0.017
       0.001  0.920  0.005  0.000  0.000
       0.001  0.005  0.926 -0.000 -0.000
      -0.010  0.000 -0.000  0.916  0.023
       0.017  0.000 -0.000  0.023  0.890
     ------------------------ ATOM   17 ------------------------
     Tr[ns( 17)] =   9.05213
     eigenvalues:
       0.846  0.906  0.911  0.927  0.935
     eigenvectors (columns):
       0.664 -0.661 -0.232  0.260 -0.021
      -0.027 -0.185 -0.485 -0.814  0.260
      -0.143 -0.512  0.648 -0.387 -0.385
      -0.733 -0.495 -0.310  0.342  0.064
       0.014 -0.148  0.442  0.052  0.883
     occupation matrix ns (before diag.):
       0.882 -0.003  0.003  0.031 -0.001
      -0.003  0.923  0.002 -0.006  0.005
       0.003  0.002  0.915 -0.011 -0.009
       0.031 -0.006 -0.011  0.877  0.002
      -0.001  0.005 -0.009  0.002  0.930
     ------------------------ ATOM   18 ------------------------
     Tr[ns( 18)] =   9.05213
     eigenvalues:
       0.846  0.906  0.911  0.927  0.935
     eigenvectors (columns):
      -0.664  0.661 -0.232  0.260 -0.021
       0.110  0.350  0.804  0.071 -0.463
       0.095  0.416 -0.096 -0.899  0.033
      -0.354 -0.376 -0.227 -0.216 -0.797
      -0.642 -0.355  0.489 -0.270  0.387
     occupation matrix ns (before diag.):
       0.882  0.004 -0.001 -0.015 -0.028
       0.004  0.915 -0.003  0.012  0.001
      -0.001 -0.003  0.922  0.005  0.009
      -0.015  0.012  0.005  0.918 -0.022
      -0.028  0.001  0.009 -0.022  0.889

     Number of occupied Hubbard levels =   54.4194

          k = 0.0000 0.0000 0.0000 ( 16309 PWs)   bands (ev):

   -92.3501 -92.3500 -92.3224 -92.3223 -92.0065 -91.9660 -52.9529 -52.9525
   -52.9138 -52.9137 -52.8432 -52.8432 -52.7767 -52.7767 -52.7550 -52.7550
   -52.7251 -52.7251 -52.5184 -52.5128 -52.5073 -52.4800 -52.4776 -52.4179
   -47.9588 -24.0208 -23.9930 -23.9559   0.2885   1.1166   1.2249   3.3197
     3.4605   3.5949   3.6532   3.6984   3.7990   3.9015   4.0050   4.0632
     4.1568   4.2263   4.3837   4.3876   4.4330   4.6354   4.7000   4.7158
     4.7901   4.8496   5.0335   5.0597   5.0632   5.1053   5.2514   5.3358
     5.4170   5.4200   5.5050   5.5317   5.7163   5.7263   5.7632   6.3529
     6.3952   6.7423   7.2503   7.3697   7.6525   7.7067   7.8041   7.8919
     8.3155   8.5562   8.6903   8.7384   8.7615   8.7959   8.8179   8.9258
     8.9331   9.0655   9.5854   9.7299  10.3216  10.4863

          k = 0.0000 0.0000 0.0984 ( 16316 PWs)   bands (ev):

   -92.3501 -92.3500 -92.3224 -92.3223 -92.0065 -91.9660 -52.9529 -52.9525
   -52.9138 -52.9137 -52.8432 -52.8432 -52.7767 -52.7767 -52.7550 -52.7550
   -52.7251 -52.7251 -52.5184 -52.5128 -52.5073 -52.4800 -52.4776 -52.4179
   -47.9588 -24.0208 -23.9930 -23.9559   0.3439   0.7909   1.6335   2.8771
     3.5215   3.6237   3.6518   3.7949   3.8636   3.9108   4.0162   4.0686
     4.1539   4.2240   4.3827   4.3968   4.4288   4.6424   4.6801   4.7251
     4.7947   4.8288   4.9098   5.0503   5.1072   5.2498   5.3340   5.4128
     5.4188   5.4446   5.5065   5.5316   5.7163   5.7263   5.7654   6.3488
     6.4040   6.6973   7.1877   7.2656   7.3118   7.7050   7.8038   7.9314
     8.4030   8.6240   8.6593   8.7196   8.8142   8.8440   8.8901   8.9948
     9.0099   9.0655   9.5922   9.7138  10.2339  10.5679

          k = 0.0000 0.0000-0.1968 ( 16334 PWs)   bands (ev):

   -92.3501 -92.3500 -92.3224 -92.3223 -92.0065 -91.9660 -52.9529 -52.9525
   -52.9138 -52.9137 -52.8432 -52.8432 -52.7767 -52.7767 -52.7550 -52.7550
   -52.7251 -52.7251 -52.5184 -52.5128 -52.5073 -52.4800 -52.4776 -52.4179
   -47.9588 -24.0208 -23.9930 -23.9559   0.4815   0.5463   2.0046   2.4646
     3.5258   3.6275   3.6517   3.7912   3.8901   3.9642   4.0460   4.0746
     4.1453   4.2237   4.3921   4.3952   4.4253   4.6581   4.6587   4.7269
     4.8001   4.8059   4.8878   5.0472   5.1095   5.2508   5.3343   5.4166
     5.4195   5.5061   5.5283   5.7163   5.7263   5.7669   5.9268   6.2028
     6.4201   6.4680   7.0990   7.2089   7.2454   7.5309   7.8649   7.9638
     8.4963   8.5914   8.6680   8.8068   8.8441   8.8889   8.9327   9.0046
     9.0503   9.0660   9.6213   9.6905  10.1390  10.4540

          k = 0.0000 0.1443 0.0000 ( 16313 PWs)   bands (ev):

   -92.3500 -92.3500 -92.3224 -92.3223 -92.0064 -91.9660 -52.9528 -52.9520
   -52.9139 -52.9138 -52.8432 -52.8412 -52.7793 -52.7767 -52.7550 -52.7550
   -52.7252 -52.7251 -52.5182 -52.5127 -52.5049 -52.4801 -52.4777 -52.4206
   -47.9588 -24.0209 -23.9932 -23.9558   0.4090   1.2295   1.3457   3.3849
     3.5293   3.6219   3.6850   3.7210   3.8063   3.9238   4.0145   4.0849
     4.1772   4.2627   4.3677   4.4138   4.4898   4.6268   4.6953   4.7138
     4.7755   4.8341   5.0032   5.0368   5.0656   5.0983   5.1763   5.2823
     5.3348   5.4047   5.4150   5.4544   5.6223   5.6371   5.6735   6.1402
     6.4703   6.5663   6.8684   7.1247   7.3333   7.5120   7.5729   7.6405
     7.9206   8.1796   8.2775   8.4459   8.7265   8.7701   9.2308   9.3033
     9.4682   9.6256   9.7750  10.0104  10.3448  10.4578

          k = 0.0000 0.1443 0.0984 ( 16313 PWs)   bands (ev):

   -92.3500 -92.3500 -92.3224 -92.3223 -92.0064 -91.9660 -52.9528 -52.9520
   -52.9139 -52.9138 -52.8432 -52.8412 -52.7793 -52.7767 -52.7550 -52.7550
   -52.7252 -52.7251 -52.5182 -52.5127 -52.5049 -52.4801 -52.4777 -52.4206
   -47.9588 -24.0209 -23.9932 -23.9558   0.4643   0.9090   1.7479   2.9701
     3.5541   3.6397   3.6826   3.8007   3.8955   3.9473   4.0237   4.1007
     4.1736   4.2490   4.3561   4.4172   4.4922   4.6381   4.6708   4.7276
     4.7831   4.8180   4.9166   5.0128   5.0746   5.1768   5.2707   5.3143
     5.3577   5.4122   5.4454   5.4838   5.6154   5.6242   5.7093   6.1455
     6.4644   6.6025   6.8301   7.1468   7.2381   7.3331   7.4574   7.6607
     7.9163   8.1579   8.2997   8.4531   8.7689   8.9385   9.1778   9.2626
     9.3605   9.6596   9.8029  10.1140  10.3130  10.4288

          k = 0.0000 0.1443-0.1968 ( 16334 PWs)   bands (ev):

   -92.3500 -92.3500 -92.3224 -92.3223 -92.0064 -91.9660 -52.9528 -52.9520
   -52.9139 -52.9138 -52.8432 -52.8412 -52.7793 -52.7767 -52.7550 -52.7550
   -52.7252 -52.7251 -52.5182 -52.5127 -52.5049 -52.4801 -52.4777 -52.4206
   -47.9588 -24.0209 -23.9932 -23.9558   0.5988   0.6684   2.1188   2.5634
     3.5542   3.6423   3.6830   3.7959   3.9077   3.9812   4.0645   4.1120
     4.1679   4.2566   4.3644   4.4188   4.4876   4.6344   4.6651   4.7271
     4.7888   4.8014   4.8906   5.0102   5.0751   5.1789   5.2676   5.3263
     5.3891   5.4127   5.4487   5.5935   5.6228   5.6370   6.0088   6.1201
     6.3771   6.5238   6.7730   6.9050   7.1827   7.2580   7.4673   7.6454
     7.8430   8.3338   8.3692   8.6190   8.8356   8.8788   9.0638   9.1798
     9.3636   9.6175   9.7584  10.2002  10.3239  10.3972

          k = 0.0000 0.2887 0.0000 ( 16389 PWs)   bands (ev):

   -92.3500 -92.3497 -92.3225 -92.3223 -92.0062 -91.9660 -52.9527 -52.9504
   -52.9143 -52.9138 -52.8432 -52.8355 -52.7865 -52.7767 -52.7551 -52.7548
   -52.7254 -52.7251 -52.5179 -52.5126 -52.4980 -52.4802 -52.4778 -52.4279
   -47.9587 -24.0212 -23.9936 -23.9557   0.7669   1.5635   1.7018   3.5188
     3.6293   3.6949   3.7441   3.7780   3.8188   3.8964   4.0428   4.1100
     4.2367   4.3573   4.3745   4.4692   4.5603   4.6271   4.6646   4.7109
     4.7536   4.7819   4.8369   4.9027   4.9638   5.0188   5.0517   5.1086
     5.1226   5.2389   5.3586   5.3907   5.4049   5.4243   5.5751   5.6617
     6.0837   6.2232   6.4107   6.6289   7.1156   7.1816   7.2556   7.4301
     7.5675   7.7876   8.1727   8.2810   8.4892   8.5802   9.0272   9.2630
     9.8507   9.9052  10.0775  10.2501  10.6703  10.8948

          k = 0.0000 0.2887 0.0984 ( 16367 PWs)   bands (ev):

   -92.3500 -92.3497 -92.3225 -92.3223 -92.0062 -91.9660 -52.9527 -52.9504
   -52.9143 -52.9138 -52.8432 -52.8355 -52.7865 -52.7767 -52.7551 -52.7548
   -52.7254 -52.7251 -52.5179 -52.5126 -52.4980 -52.4802 -52.4778 -52.4279
   -47.9587 -24.0212 -23.9936 -23.9557   0.8212   1.2590   2.0858   3.2265
     3.6032   3.6423   3.7344   3.7868   3.8663   4.0143   4.0587   4.1539
     4.2192   4.3001   4.3809   4.4663   4.5669   4.6614   4.6703   4.6959
     4.7631   4.7911   4.8332   4.8908   4.9729   5.0118   5.0597   5.0891
     5.1194   5.1727   5.3607   5.3926   5.4011   5.4242   5.6455   5.8515
     6.1109   6.2514   6.4795   6.6277   6.9799   7.1230   7.2386   7.4245
     7.5242   7.8768   7.9991   8.0767   8.5780   8.7151   8.8117   9.5164
     9.5534  10.0358  10.2454  10.3721  10.7043  10.9275

          k = 0.0000 0.2887-0.1968 ( 16360 PWs)   bands (ev):

   -92.3500 -92.3497 -92.3225 -92.3223 -92.0062 -91.9660 -52.9527 -52.9504
   -52.9143 -52.9138 -52.8432 -52.8355 -52.7865 -52.7767 -52.7551 -52.7548
   -52.7254 -52.7251 -52.5179 -52.5126 -52.4980 -52.4802 -52.4778 -52.4279
   -47.9587 -24.0212 -23.9936 -23.9557   0.9475   1.0293   2.4542   2.8433
     3.6010   3.6440   3.7353   3.7603   3.8999   3.9933   4.1100   4.1838
     4.2179   4.2930   4.3775   4.4732   4.5593   4.6263   4.6729   4.7151
     4.7681   4.7854   4.8519   4.8986   4.9477   5.0072   5.0479   5.0894
     5.1264   5.1810   5.3644   5.3939   5.4139   5.4244   5.6537   6.0651
     6.1352   6.3697   6.5791   6.6748   6.8370   6.9712   7.1559   7.1951
     7.3832   7.9645   8.1377   8.1745   8.4495   8.6096   8.9034   9.2319
     9.8126  10.1633  10.2962  10.4440  10.7264  10.9826

          k = 0.0000 0.4330 0.0000 ( 16379 PWs)   bands (ev):

   -92.3500 -92.3495 -92.3225 -92.3223 -92.0060 -91.9660 -52.9527 -52.9487
   -52.9148 -52.9138 -52.8432 -52.8271 -52.7963 -52.7767 -52.7551 -52.7547
   -52.7256 -52.7251 -52.5176 -52.5124 -52.4891 -52.4804 -52.4780 -52.4371
   -47.9587 -24.0214 -23.9940 -23.9556   1.3483   2.0988   2.2675   3.0372
     3.4892   3.5825   3.6098   3.8254   3.9227   3.9929   4.1147   4.1571
     4.3154   4.3810   4.4163   4.5110   4.5244   4.6197   4.6454   4.6880
     4.7065   4.7514   4.7743   4.8149   4.8369   4.8703   4.9212   4.9621
     5.0063   5.0325   5.0456   5.1267   5.3812   5.4192   5.5469   5.6274
     5.7404   5.8502   6.1172   6.6106   6.8499   6.8992   7.0565   7.1691
     7.3998   7.4762   7.8317   7.9790   8.2717   8.3626   8.9590   9.4259
     9.7335   9.8705  10.3425  10.6541  11.3525  11.6378

          k = 0.0000 0.4330 0.0984 ( 16368 PWs)   bands (ev):

   -92.3500 -92.3495 -92.3225 -92.3223 -92.0060 -91.9660 -52.9527 -52.9487
   -52.9148 -52.9138 -52.8432 -52.8271 -52.7963 -52.7767 -52.7551 -52.7547
   -52.7256 -52.7251 -52.5176 -52.5124 -52.4891 -52.4804 -52.4780 -52.4371
   -47.9587 -24.0214 -23.9940 -23.9556   1.4010   1.8213   2.6173   3.0727
     3.3491   3.5500   3.6321   3.7698   3.8284   4.0341   4.1628   4.2001
     4.2861   4.3560   4.4221   4.5099   4.5339   4.6093   4.6450   4.6767
     4.7266   4.7413   4.7735   4.8168   4.8272   4.8817   4.9299   4.9432
     5.0039   5.0312   5.1113   5.1528   5.3645   5.3895   5.4212   5.6028
     5.8470   5.9211   6.3029   6.5078   6.6859   6.7915   7.1083   7.3268
     7.4568   7.5341   7.8667   7.9549   8.3846   8.4548   8.5954   9.2401
     9.4872  10.0095  10.3613  10.9330  11.3531  11.6493

          k = 0.0000 0.4330-0.1968 ( 16370 PWs)   bands (ev):

   -92.3500 -92.3495 -92.3225 -92.3223 -92.0060 -91.9660 -52.9527 -52.9487
   -52.9148 -52.9138 -52.8432 -52.8271 -52.7963 -52.7767 -52.7551 -52.7547
   -52.7256 -52.7251 -52.5176 -52.5124 -52.4891 -52.4804 -52.4780 -52.4371
   -47.9587 -24.0214 -23.9941 -23.9556   1.5161   1.6098   2.9636   3.1561
     3.2218   3.2466   3.6199   3.8129   3.8850   3.9685   4.1538   4.2384
     4.2884   4.3454   4.4064   4.5046   4.5407   4.6301   4.6438   4.6808
     4.7081   4.7454   4.7721   4.8289   4.8457   4.8691   4.9142   4.9364
     4.9964   5.0413   5.1400   5.2136   5.2845   5.3850   5.4207   5.6216
     5.8527   5.9052   6.3900   6.5594   6.6464   6.9784   7.0921   7.1114
     7.3557   7.7107   7.9901   8.0098   8.1336   8.4700   8.5712   9.1773
     9.3401  10.0285  10.3047  11.3380  11.4177  11.5168

          k = 0.0000-0.5774 0.0000 ( 16352 PWs)   bands (ev):

   -92.3500 -92.3494 -92.3226 -92.3223 -92.0060 -91.9660 -52.9527 -52.9480
   -52.9150 -52.9138 -52.8432 -52.8212 -52.8028 -52.7767 -52.7551 -52.7546
   -52.7257 -52.7251 -52.5175 -52.5124 -52.4842 -52.4805 -52.4783 -52.4419
   -47.9587 -24.0215 -23.9942 -23.9556   2.0592   2.1916   2.7288   2.8608
     2.9702   3.0334   3.6020   3.8620   3.9876   4.0913   4.1738   4.2625
     4.3486   4.3744   4.4629   4.5123   4.5542   4.5757   4.6097   4.6302
     4.6592   4.6865   4.7078   4.7758   4.8166   4.8215   4.8587   4.8753
     4.8829   4.9471   5.1874   5.2723   5.3810   5.4186   5.4470   5.4592
     5.6800   5.9563   6.2494   6.3378   6.5824   6.7006   6.9597   7.1052
     7.1500   7.5400   7.7580   7.8687   8.1838   8.2982   8.9601   9.5391
     9.6393   9.9949  10.3750  10.7597  11.3810  11.5560

          k = 0.0000-0.5774 0.0984 ( 16378 PWs)   bands (ev):

   -92.3500 -92.3494 -92.3226 -92.3223 -92.0060 -91.9660 -52.9527 -52.9480
   -52.9150 -52.9138 -52.8432 -52.8212 -52.8028 -52.7767 -52.7551 -52.7546
   -52.7257 -52.7251 -52.5175 -52.5124 -52.4842 -52.4805 -52.4783 -52.4419
   -47.9587 -24.0215 -23.9942 -23.9556   2.1082   2.2272   2.5205   2.6361
     3.2419   3.2951   3.6042   3.8498   3.8892   4.0062   4.1674   4.2821
     4.3446   4.3855   4.4453   4.5131   4.5640   4.5728   4.6192   4.6339
     4.6667   4.6772   4.7088   4.7608   4.8124   4.8332   4.8543   4.8850
     4.9182   4.9439   5.1895   5.2718   5.3805   5.4176   5.4395   5.4494
     5.5097   5.8310   6.1010   6.4813   6.6775   6.8679   7.0199   7.1563
     7.3792   7.5059   7.8140   7.9021   8.1525   8.2555   8.6607   9.3449
     9.5076   9.8699  10.2496  11.0840  11.4982  11.9684

          k = 0.0000-0.5774-0.1968 ( 16368 PWs)   bands (ev):

   -92.3500 -92.3494 -92.3226 -92.3223 -92.0060 -91.9660 -52.9527 -52.9480
   -52.9150 -52.9138 -52.8432 -52.8212 -52.8028 -52.7767 -52.7551 -52.7546
   -52.7257 -52.7251 -52.5175 -52.5124 -52.4842 -52.4805 -52.4783 -52.4419
   -47.9587 -24.0215 -23.9942 -23.9556   2.2090   2.2887   2.3280   2.4998
     3.4977   3.5336   3.6114   3.7225   3.8065   3.8722   4.1660   4.2939
     4.3599   4.3796   4.4293   4.5133   4.5669   4.5714   4.6348   4.6400
     4.6634   4.6769   4.7112   4.7537   4.8082   4.8359   4.8527   4.8897
     4.9297   4.9807   5.1918   5.2714   5.3073   5.3838   5.4196   5.4505
     5.4720   5.7233   6.0676   6.5320   6.6312   6.9845   7.1221   7.4233
     7.4801   7.6456   7.8075   7.9270   7.9755   8.3096   8.4443   9.0303
     9.2575   9.8385  10.2947  11.4718  11.6635  12.0605

          k = 0.1250 0.2165 0.0000 ( 16312 PWs)   bands (ev):

   -92.3499 -92.3499 -92.3224 -92.3224 -92.0062 -91.9660 -52.9522 -52.9519
   -52.9140 -52.9139 -52.8412 -52.8412 -52.7793 -52.7793 -52.7550 -52.7550
   -52.7252 -52.7252 -52.5179 -52.5126 -52.4980 -52.4802 -52.4778 -52.4279
   -47.9588 -24.0210 -23.9936 -23.9558   0.6481   1.4535   1.5839   3.4804
     3.6433   3.6648   3.7403   3.7557   3.7971   3.9263   4.0180   4.1207
     4.2010   4.3062   4.3839   4.4141   4.6249   4.6863   4.7144   4.7354
     4.7474   4.7896   4.8407   4.9070   4.9559   5.0200   5.1482   5.1774
     5.2870   5.3081   5.3178   5.3796   5.4058   5.5293   5.5983   5.9162
     6.0166   6.4971   6.5138   6.5970   6.8182   6.9430   7.4608   7.6238
     7.8042   8.1146   8.2173   8.3987   8.7764   9.0290   9.1716   9.2320
     9.4960   9.5287   9.7458   9.9183  10.6062  10.9426

          k = 0.1250 0.2165 0.0984 ( 16346 PWs)   bands (ev):

   -92.3499 -92.3499 -92.3224 -92.3223 -92.0062 -91.9660 -52.9522 -52.9519
   -52.9140 -52.9139 -52.8412 -52.8412 -52.7793 -52.7793 -52.7550 -52.7550
   -52.7252 -52.7252 -52.5179 -52.5126 -52.4980 -52.4802 -52.4778 -52.4279
   -47.9588 -24.0210 -23.9936 -23.9558   0.7028   1.1432   1.9743   3.1433
     3.6022   3.6623   3.7342   3.7694   3.9018   3.9968   4.0305   4.1640
     4.1957   4.2655   4.3681   4.4174   4.6346   4.6619   4.7036   4.7285
     4.7705   4.7961   4.8517   4.8947   4.9714   5.0354   5.1125   5.2267
     5.2852   5.3043   5.3131   5.3810   5.4184   5.4949   5.7288   5.9203
     6.0886   6.4342   6.5088   6.7133   6.7915   7.0805   7.3074   7.4517
     7.8423   7.9593   8.1678   8.3706   8.8405   8.8486   8.9900   9.2483
     9.4952   9.6519  10.0303  10.2439  10.6997  10.9305

          k = 0.1250 0.2165-0.1968 ( 16360 PWs)   bands (ev):

   -92.3499 -92.3499 -92.3224 -92.3223 -92.0062 -91.9660 -52.9522 -52.9519
   -52.9140 -52.9139 -52.8412 -52.8412 -52.7793 -52.7793 -52.7550 -52.7550
   -52.7252 -52.7252 -52.5179 -52.5126 -52.4980 -52.4802 -52.4778 -52.4279
   -47.9588 -24.0210 -23.9936 -23.9558   0.8320   0.9097   2.3441   2.7520
     3.5976   3.6612   3.7394   3.7596   3.9099   4.0035   4.0686   4.1727
     4.2243   4.2712   4.3542   4.4231   4.6211   4.6371   4.6950   4.7391
     4.7636   4.7961   4.8582   4.9047   4.9532   5.0443   5.1112   5.2745
     5.2909   5.2947   5.3123   5.3827   5.4185   5.5122   5.8682   6.0018
     6.2798   6.3212   6.5096   6.5695   6.8216   7.0144   7.2238   7.3644
     7.7852   7.9664   8.2760   8.3942   8.5146   8.7339   9.2704   9.2854
     9.4639   9.4808  10.3923  10.5171  10.6906  10.9016

          k = 0.1250 0.3608 0.0000 ( 16370 PWs)   bands (ev):

   -92.3499 -92.3497 -92.3224 -92.3223 -92.0061 -91.9660 -52.9521 -52.9504
   -52.9143 -52.9139 -52.8412 -52.8355 -52.7865 -52.7793 -52.7550 -52.7549
   -52.7254 -52.7252 -52.5176 -52.5124 -52.4891 -52.4804 -52.4780 -52.4371
   -47.9587 -24.0212 -23.9940 -23.9557   1.1183   1.8910   2.0466   3.4904
     3.5872   3.6936   3.7204   3.8154   3.8770   3.9220   4.0100   4.0951
     4.2341   4.3700   4.4200   4.4620   4.4938   4.5749   4.6498   4.6898
     4.7109   4.7473   4.7812   4.8416   4.9189   4.9451   5.0331   5.0669
     5.0858   5.1198   5.1244   5.2004   5.2830   5.4790   5.5553   5.6593
     5.7943   5.8775   5.9808   6.3060   6.4194   7.0759   7.1670   7.3909
     7.4921   7.8547   8.2095   8.3182   8.4898   8.7912   8.9953   9.4143
     9.5478   9.8391  10.0108  10.3342  10.7469  11.5491

          k = 0.1250 0.3608 0.0984 ( 16342 PWs)   bands (ev):

   -92.3499 -92.3497 -92.3224 -92.3223 -92.0061 -91.9660 -52.9521 -52.9504
   -52.9143 -52.9139 -52.8412 -52.8355 -52.7865 -52.7793 -52.7550 -52.7549
   -52.7254 -52.7252 -52.5176 -52.5124 -52.4891 -52.4804 -52.4780 -52.4371
   -47.9587 -24.0212 -23.9940 -23.9557   1.1717   1.6012   2.4121   3.4321
     3.5144   3.6407   3.6558   3.7749   3.8521   3.9785   4.0659   4.1189
     4.2367   4.3524   4.4022   4.4415   4.5052   4.6143   4.6357   4.7035
     4.7292   4.7570   4.7851   4.8399   4.8776   4.9309   5.0113   5.0691
     5.0791   5.1058   5.1257   5.2220   5.3097   5.3852   5.5219   5.7388
     5.8671   5.9543   6.0769   6.2896   6.6356   6.8930   7.1192   7.3576
     7.4833   7.7547   8.0894   8.3243   8.5357   8.6603   8.9928   9.3904
     9.8307   9.9344  10.0639  10.3204  10.8344  11.3350

          k = 0.1250 0.3608-0.1968 ( 16364 PWs)   bands (ev):

   -92.3499 -92.3497 -92.3224 -92.3223 -92.0061 -91.9660 -52.9521 -52.9504
   -52.9143 -52.9139 -52.8412 -52.8355 -52.7865 -52.7793 -52.7550 -52.7549
   -52.7254 -52.7252 -52.5176 -52.5124 -52.4891 -52.4804 -52.4780 -52.4371
   -47.9587 -24.0212 -23.9940 -23.9557   1.2913   1.3817   2.7778   3.0911
     3.5486   3.5823   3.6422   3.7965   3.8687   3.9773   4.0361   4.1427
     4.2614   4.3230   4.3804   4.4455   4.5264   4.6196   4.6545   4.6907
     4.7157   4.7623   4.8023   4.8459   4.8831   4.9013   5.0240   5.0709
     5.0804   5.1079   5.1264   5.2270   5.2950   5.3578   5.5354   5.7928
     5.8584   5.9626   6.1406   6.5200   6.7499   6.8305   7.0704   7.1703
     7.4228   7.7393   8.0594   8.2176   8.3271   8.6054   9.1415   9.6552
     9.7781   9.9849  10.2680  10.4552  10.7465  11.0888

          k = 0.1250 0.5052 0.0000 ( 16377 PWs)   bands (ev):

   -92.3499 -92.3495 -92.3225 -92.3223 -92.0060 -91.9660 -52.9521 -52.9487
   -52.9148 -52.9139 -52.8412 -52.8271 -52.7963 -52.7793 -52.7550 -52.7547
   -52.7256 -52.7252 -52.5175 -52.5124 -52.4842 -52.4805 -52.4783 -52.4419
   -47.9587 -24.0215 -23.9942 -23.9556   1.7976   2.4902   2.6493   2.7264
     3.2470   3.3796   3.6205   3.8779   3.9182   4.0705   4.0947   4.1287
     4.2294   4.3121   4.4340   4.4795   4.5076   4.5624   4.6229   4.6488
     4.6669   4.7206   4.7590   4.7907   4.8129   4.8432   4.8603   4.8887
     4.9259   4.9745   4.9972   5.2623   5.3861   5.4414   5.4700   5.5457
     5.6492   5.8772   5.9330   6.2067   6.3309   6.5855   6.8061   7.3162
     7.4836   7.6158   7.8948   8.2361   8.3345   8.6221   8.8557   9.4114
     9.8073  10.0361  10.4833  11.1035  11.4007  11.5982

          k = 0.1250 0.5052 0.0984 ( 16380 PWs)   bands (ev):

   -92.3499 -92.3495 -92.3225 -92.3223 -92.0060 -91.9660 -52.9521 -52.9487
   -52.9148 -52.9139 -52.8412 -52.8271 -52.7963 -52.7793 -52.7550 -52.7547
   -52.7256 -52.7252 -52.5175 -52.5124 -52.4842 -52.4805 -52.4783 -52.4419
   -47.9587 -24.0215 -23.9942 -23.9556   1.8488   2.2460   2.7067   3.0125
     3.0584   3.5638   3.6212   3.8172   3.8836   4.0103   4.0816   4.1310
     4.2224   4.3200   4.4165   4.4754   4.5354   4.5782   4.6354   4.6517
     4.6629   4.7262   4.7597   4.7845   4.8199   4.8379   4.8619   4.8974
     4.9170   4.9741   5.0225   5.2553   5.3853   5.4393   5.4707   5.5213
     5.5664   5.6771   6.0009   6.1359   6.4464   6.7088   7.0558   7.2743
     7.4801   7.6511   7.8536   8.1630   8.3698   8.5076   8.9824   9.2854
     9.6767   9.9814  10.4560  11.0283  11.4044  11.5766

          k = 0.1250 0.5052-0.1968 ( 16374 PWs)   bands (ev):

   -92.3499 -92.3495 -92.3225 -92.3223 -92.0060 -91.9660 -52.9521 -52.9487
   -52.9148 -52.9139 -52.8412 -52.8271 -52.7963 -52.7793 -52.7550 -52.7547
   -52.7256 -52.7252 -52.5175 -52.5124 -52.4842 -52.4805 -52.4783 -52.4419
   -47.9587 -24.0215 -23.9942 -23.9556   1.9573   2.0504   2.7880   2.8924
     3.3733   3.4627   3.6298   3.8221   3.8747   3.9352   4.0445   4.1355
     4.2251   4.3160   4.3882   4.4849   4.5566   4.5740   4.6344   4.6522
     4.7027   4.7330   4.7512   4.7780   4.8108   4.8337   4.8727   4.8848
     4.9244   4.9736   5.0813   5.1928   5.3842   5.4065   5.4480   5.4804
     5.5763   5.6996   5.8833   6.0320   6.6154   7.0218   7.0733   7.3006
     7.4797   7.6950   7.8173   8.0443   8.2705   8.5609   8.7571   9.3393
     9.6775   9.9840  10.4692  11.0918  11.1564  11.4650

          k = 0.2500 0.4330 0.0000 ( 16380 PWs)   bands (ev):

   -92.3497 -92.3497 -92.3224 -92.3224 -92.0060 -91.9660 -52.9506 -52.9502
   -52.9144 -52.9143 -52.8355 -52.8355 -52.7865 -52.7865 -52.7549 -52.7549
   -52.7254 -52.7254 -52.5175 -52.5124 -52.4842 -52.4805 -52.4783 -52.4419
   -47.9586 -24.0215 -23.9942 -23.9556   1.6896   2.4137   2.5926   3.2889
     3.3477   3.5836   3.6156   3.7369   3.8116   3.9883   4.0258   4.0476
     4.1809   4.2557   4.3654   4.4424   4.4761   4.5819   4.6020   4.6385
     4.6918   4.7154   4.7619   4.7872   4.8084   4.8556   4.9189   4.9522
     4.9667   5.0391   5.0537   5.0946   5.3681   5.4385   5.4561   5.5056
     5.6164   5.7950   5.8822   5.9219   6.0850   6.8337   7.0794   7.2135
     7.3547   7.4690   8.0959   8.2935   8.6593   8.7511   9.4890   9.7568
     9.8445  10.2435  10.4492  10.5989  10.9284  11.6173

          k = 0.2500 0.4330 0.0984 ( 16361 PWs)   bands (ev):

   -92.3497 -92.3497 -92.3224 -92.3224 -92.0060 -91.9660 -52.9506 -52.9502
   -52.9144 -52.9143 -52.8355 -52.8355 -52.7865 -52.7865 -52.7549 -52.7549
   -52.7254 -52.7254 -52.5175 -52.5124 -52.4842 -52.4805 -52.4783 -52.4419
   -47.9586 -24.0215 -23.9942 -23.9556   1.7409   2.1515   2.9186   3.3141
     3.3731   3.5243   3.5744   3.7141   3.8005   3.9054   3.9838   4.0773
     4.1290   4.3099   4.3818   4.4426   4.5245   4.5848   4.5982   4.6156
     4.6892   4.7211   4.7735   4.7903   4.8152   4.8625   4.9124   4.9250
     4.9567   5.0492   5.0735   5.1027   5.3740   5.4144   5.4383   5.5046
     5.5410   5.7297   5.8670   5.9524   6.5039   6.6320   6.8859   7.1993
     7.4357   7.5488   8.1072   8.2442   8.7145   9.0765   9.2445   9.6312
     9.9492  10.1089  10.3832  10.5976  10.8957  11.1747

          k = 0.2500 0.4330-0.1968 ( 16354 PWs)   bands (ev):

   -92.3497 -92.3497 -92.3224 -92.3224 -92.0060 -91.9660 -52.9506 -52.9502
   -52.9144 -52.9143 -52.8355 -52.8355 -52.7865 -52.7865 -52.7549 -52.7549
   -52.7254 -52.7254 -52.5175 -52.5124 -52.4842 -52.4805 -52.4783 -52.4419
   -47.9586 -24.0215 -23.9942 -23.9556   1.8509   1.9484   3.2624   3.3771
     3.3917   3.4112   3.4746   3.5733   3.7957   3.8581   3.9729   4.0642
     4.1492   4.3088   4.4028   4.4824   4.5265   4.5736   4.6144   4.6247
     4.6935   4.7147   4.7716   4.7922   4.8161   4.8515   4.9122   4.9229
     4.9531   5.0502   5.0773   5.1159   5.3594   5.3819   5.4381   5.4686
     5.5209   5.6726   5.9916   6.0975   6.3571   6.5537   7.0505   7.2229
     7.4954   7.6595   7.9493   8.1096   8.5455   9.2074   9.4080   9.9221
     9.9744  10.0837  10.2014  10.3641  10.7231  10.9954

          k = 0.2500 0.5774 0.0000 ( 16380 PWs)   bands (ev):

   -92.3497 -92.3495 -92.3225 -92.3224 -92.0060 -91.9660 -52.9504 -52.9487
   -52.9148 -52.9143 -52.8355 -52.8271 -52.7963 -52.7865 -52.7549 -52.7547
   -52.7256 -52.7254 -52.5176 -52.5124 -52.4891 -52.4804 -52.4780 -52.4371
   -47.9586 -24.0219 -23.9941 -23.9555   2.4020   2.5015   3.0197   3.1272
     3.2188   3.2537   3.3113   3.5849   3.7759   4.0177   4.0639   4.1579
     4.1930   4.2793   4.3415   4.4252   4.4417   4.5199   4.5450   4.5724
     4.6341   4.6900   4.7157   4.7655   4.7882   4.8316   4.8938   4.9104
     4.9543   4.9976   5.0369   5.0896   5.2291   5.3063   5.3732   5.5174
     5.5940   5.7996   5.8553   6.1637   6.3890   6.5062   6.6688   7.0460
     7.1658   7.6722   7.9901   8.1807   8.5698   8.6555   9.5927  10.0900
    10.4437  10.6967  10.9361  11.1391  11.2880  11.3310

          k = 0.2500 0.5774 0.0984 ( 16361 PWs)   bands (ev):

   -92.3497 -92.3495 -92.3225 -92.3224 -92.0060 -91.9660 -52.9504 -52.9487
   -52.9148 -52.9143 -52.8355 -52.8271 -52.7963 -52.7865 -52.7549 -52.7547
   -52.7256 -52.7254 -52.5176 -52.5124 -52.4891 -52.4804 -52.4780 -52.4371
   -47.9586 -24.0219 -23.9941 -23.9555   2.4487   2.5384   2.8332   2.9138
     3.2701   3.4507   3.5067   3.5699   3.7899   3.9859   4.0470   4.1071
     4.1778   4.2652   4.3425   4.4298   4.4706   4.5287   4.5561   4.5758
     4.6323   4.6901   4.7150   4.7596   4.7890   4.8170   4.8824   4.9132
     4.9464   5.0050   5.0528   5.1078   5.2351   5.3155   5.3747   5.5407
     5.6277   5.7741   5.8226   5.9325   6.0828   6.5758   6.8962   7.1760
     7.3985   7.6353   7.9313   8.2206   8.4843   8.9583   9.5299   9.8481
    10.1084  10.4774  10.8087  11.1689  11.2643  11.3403

          k = 0.2500 0.5774-0.1968 ( 16362 PWs)   bands (ev):

   -92.3497 -92.3495 -92.3225 -92.3224 -92.0060 -91.9660 -52.9504 -52.9487
   -52.9148 -52.9143 -52.8355 -52.8271 -52.7963 -52.7865 -52.7549 -52.7547
   -52.7256 -52.7254 -52.5176 -52.5124 -52.4891 -52.4804 -52.4780 -52.4371
   -47.9586 -24.0219 -23.9941 -23.9555   2.5478   2.6044   2.6530   2.7716
     3.3177   3.4373   3.6636   3.7550   3.8088   3.8964   3.9789   4.0404
     4.1762   4.2531   4.3817   4.4120   4.4911   4.5389   4.5669   4.5916
     4.6280   4.6749   4.7072   4.7322   4.7800   4.8168   4.8830   4.9236
     4.9470   5.0081   5.0577   5.1081   5.2558   5.3231   5.4061   5.5226
     5.5920   5.7095   5.8069   5.8730   6.0606   6.3513   7.1004   7.4002
     7.5129   7.6646   7.8509   8.2194   8.6067   8.9693   9.4813   9.6905
    10.0197  10.2092  10.5372  11.2046  11.3153  11.3381

          k =-0.1250 0.0722 0.0000 ( 16313 PWs)   bands (ev):

   -92.3500 -92.3500 -92.3224 -92.3224 -92.0065 -91.9659 -52.9522 -52.9519
   -52.9140 -52.9139 -52.8412 -52.8412 -52.7793 -52.7793 -52.7550 -52.7550
   -52.7252 -52.7252 -52.5184 -52.5128 -52.5074 -52.4800 -52.4776 -52.4179
   -47.9588 -24.0210 -23.9930 -23.9558   0.4092   1.2293   1.3460   3.3978
     3.5311   3.6180   3.6831   3.7359   3.8378   3.9391   4.0233   4.0571
     4.2093   4.2702   4.3620   4.3930   4.4399   4.6111   4.6647   4.6755
     4.7646   4.8354   5.0364   5.0607   5.0910   5.0938   5.1934   5.2623
     5.3240   5.3434   5.4040   5.4564   5.5913   5.7167   5.7257   6.2082
     6.3869   6.5451   6.9831   7.0140   7.1739   7.5399   7.6100   7.7656
     7.8559   8.1862   8.2591   8.6039   8.6278   8.7757   9.2294   9.3041
     9.5369   9.5797   9.7479  10.0058  10.2960  10.6045

          k = 0.0000 0.1443-0.0984 ( 16313 PWs)   bands (ev):

   -92.3500 -92.3500 -92.3224 -92.3223 -92.0064 -91.9660 -52.9528 -52.9520
   -52.9139 -52.9138 -52.8432 -52.8412 -52.7793 -52.7767 -52.7550 -52.7550
   -52.7252 -52.7251 -52.5182 -52.5127 -52.5049 -52.4801 -52.4777 -52.4206
   -47.9588 -24.0209 -23.9932 -23.9558   0.4638   0.9098   1.7486   2.9707
     3.5503   3.6407   3.6831   3.7983   3.8802   3.9418   4.0269   4.0947
     4.1765   4.2662   4.3782   4.4154   4.4843   4.6255   4.6788   4.7213
     4.7820   4.8169   4.9173   5.0191   5.0677   5.1709   5.2546   5.3220
     5.3713   5.4119   5.4483   5.4945   5.6232   5.6549   5.7241   6.1356
     6.4706   6.5652   6.7398   7.1215   7.2686   7.3737   7.4952   7.5368
     7.8884   8.2309   8.4751   8.4986   8.8032   8.8480   9.1818   9.2802
     9.3064   9.5790   9.7930  10.0972  10.3182  10.4189

          k =-0.1250 0.0722 0.0984 ( 16313 PWs)   bands (ev):

   -92.3500 -92.3500 -92.3224 -92.3224 -92.0065 -91.9659 -52.9522 -52.9519
   -52.9140 -52.9139 -52.8412 -52.8412 -52.7793 -52.7793 -52.7550 -52.7550
   -52.7252 -52.7252 -52.5184 -52.5128 -52.5074 -52.4800 -52.4776 -52.4179
   -47.9588 -24.0210 -23.9930 -23.9558   0.4642   0.9095   1.7484   2.9731
     3.5554   3.6546   3.6804   3.8309   3.9006   3.9507   4.0388   4.0649
     4.2054   4.2686   4.3649   4.4036   4.4344   4.6086   4.6442   4.6934
     4.7725   4.8171   4.9230   5.0624   5.0961   5.1879   5.2356   5.3008
     5.3232   5.3774   5.4218   5.5689   5.5972   5.7168   5.7257   6.2239
     6.3689   6.5550   6.7820   7.0942   7.1907   7.3399   7.5794   7.6491
     7.9025   8.1639   8.3893   8.4398   8.7917   8.9098   9.1740   9.2445
     9.4051   9.6424   9.8242  10.0542  10.2791  10.5646

          k =-0.1250 0.0722-0.1968 ( 16334 PWs)   bands (ev):

   -92.3500 -92.3499 -92.3224 -92.3224 -92.0065 -91.9659 -52.9522 -52.9519
   -52.9140 -52.9139 -52.8412 -52.8412 -52.7793 -52.7793 -52.7550 -52.7550
   -52.7252 -52.7252 -52.5184 -52.5128 -52.5074 -52.4800 -52.4776 -52.4179
   -47.9588 -24.0210 -23.9930 -23.9558   0.5987   0.6688   2.1188   2.5648
     3.5574   3.6592   3.6792   3.8256   3.9236   3.9904   4.0597   4.0898
     4.1985   4.2658   4.3731   4.4121   4.4279   4.6004   4.6408   4.6985
     4.7816   4.7989   4.8923   5.0598   5.0982   5.1882   5.2469   5.3144
     5.3232   5.3960   5.4189   5.5978   5.7167   5.7256   5.9871   6.1974
     6.2463   6.5363   6.7197   6.9106   7.0689   7.3203   7.5854   7.6885
     7.8450   8.2823   8.4032   8.4243   8.8571   8.8702   9.0806   9.3354
     9.3833   9.5311   9.8938  10.1232  10.2616  10.5459

          k =-0.2500 0.1443 0.0000 ( 16389 PWs)   bands (ev):

   -92.3497 -92.3497 -92.3225 -92.3225 -92.0064 -91.9659 -52.9506 -52.9502
   -52.9144 -52.9143 -52.8355 -52.8355 -52.7865 -52.7865 -52.7549 -52.7548
   -52.7254 -52.7254 -52.5184 -52.5128 -52.5074 -52.4800 -52.4776 -52.4179
   -47.9587 -24.0217 -23.9931 -23.9557   0.7678   1.5627   1.7031   3.5503
     3.6560   3.7014   3.7416   3.8191   3.9432   4.0221   4.0319   4.0750
     4.1416   4.2895   4.3837   4.4626   4.4951   4.5383   4.5969   4.6189
     4.6926   4.7991   4.8510   4.9845   5.0062   5.0523   5.0571   5.0619
     5.0966   5.1191   5.3055   5.3398   5.4051   5.7165   5.7240   5.7361
     5.9991   6.1600   6.4591   6.5114   6.9392   7.1274   7.1701   7.4523
     7.6524   8.0096   8.0865   8.3673   8.4389   8.6004   9.0066   9.3133
     9.7375   9.9775  10.1813  10.2995  10.8973  11.1272

          k = 0.0000 0.2887-0.0984 ( 16367 PWs)   bands (ev):

   -92.3500 -92.3497 -92.3225 -92.3223 -92.0062 -91.9660 -52.9527 -52.9504
   -52.9143 -52.9138 -52.8432 -52.8355 -52.7865 -52.7767 -52.7551 -52.7548
   -52.7254 -52.7251 -52.5179 -52.5126 -52.4980 -52.4802 -52.4778 -52.4279
   -47.9587 -24.0212 -23.9936 -23.9557   0.8200   1.2610   2.0863   3.2272
     3.6043   3.6427   3.7343   3.7688   3.8828   4.0013   4.0384   4.1365
     4.2379   4.3502   4.3767   4.4730   4.5537   4.5954   4.6690   4.7345
     4.7548   4.7774   4.8514   4.9041   4.9479   4.9878   5.0672   5.0921
     5.1306   5.2678   5.3643   5.3933   5.4174   5.4253   5.5839   5.8533
     6.0921   6.2655   6.4918   6.6528   6.9915   7.0749   7.1275   7.3489
     7.6016   7.9009   7.9876   8.2790   8.4611   8.6049   8.9598   9.4719
     9.5972   9.9570  10.2231  10.3980  10.8240  10.9655

          k =-0.2500 0.1443 0.0984 ( 16367 PWs)   bands (ev):

   -92.3497 -92.3497 -92.3225 -92.3225 -92.0064 -91.9659 -52.9506 -52.9502
   -52.9144 -52.9143 -52.8355 -52.8355 -52.7865 -52.7865 -52.7549 -52.7548
   -52.7254 -52.7254 -52.5184 -52.5128 -52.5074 -52.4800 -52.4776 -52.4179
   -47.9587 -24.0217 -23.9931 -23.9557   0.8213   1.2605   2.0864   3.2401
     3.5822   3.7056   3.7374   3.9109   3.9763   4.0376   4.0415   4.1045
     4.1773   4.2794   4.3780   4.4645   4.4842   4.5224   4.6012   4.6203
     4.7169   4.7828   4.8780   4.9380   5.0113   5.0527   5.0602   5.0677
     5.1031   5.1150   5.2134   5.3159   5.6612   5.7166   5.7240   5.8079
     5.9409   6.2347   6.5072   6.5572   6.8455   7.0975   7.2439   7.3719
     7.5220   7.8622   8.0242   8.2237   8.4571   8.8151   8.9174   9.4283
     9.6869  10.0366  10.1276  10.5670  10.9244  11.0845

          k =-0.2500 0.1443-0.1968 ( 16360 PWs)   bands (ev):

   -92.3497 -92.3497 -92.3225 -92.3225 -92.0064 -91.9659 -52.9506 -52.9502
   -52.9144 -52.9143 -52.8355 -52.8355 -52.7865 -52.7865 -52.7549 -52.7548
   -52.7254 -52.7254 -52.5184 -52.5128 -52.5074 -52.4800 -52.4776 -52.4179
   -47.9587 -24.0217 -23.9931 -23.9557   0.9469   1.0315   2.4542   2.8493
     3.5892   3.6881   3.7459   3.8936   3.9976   4.0444   4.0563   4.1608
     4.2176   4.2407   4.3729   4.4438   4.4980   4.5119   4.6113   4.6143
     4.7384   4.7692   4.8947   4.9309   4.9983   5.0550   5.0590   5.0722
     5.1057   5.1102   5.1742   5.3130   5.7166   5.7240   5.7257   5.8736
     6.0609   6.3055   6.6216   6.7187   6.7538   6.8163   7.1864   7.3361
     7.3958   7.8908   7.9119   8.2253   8.4108   8.7447   9.1277   9.3675
     9.6300  10.1108  10.3492  10.6840  10.7593  11.1720

          k =-0.3750 0.2165 0.0000 ( 16379 PWs)   bands (ev):

   -92.3495 -92.3495 -92.3225 -92.3225 -92.0064 -91.9659 -52.9489 -52.9486
   -52.9149 -52.9147 -52.8271 -52.8271 -52.7963 -52.7963 -52.7547 -52.7547
   -52.7256 -52.7256 -52.5184 -52.5128 -52.5074 -52.4800 -52.4776 -52.4179
   -47.9586 -24.0223 -23.9932 -23.9555   1.3509   2.0988   2.2701   3.0361
     3.4735   3.5892   3.9070   3.9438   3.9929   4.0493   4.1007   4.1324
     4.1599   4.3059   4.3586   4.4638   4.5124   4.5343   4.5400   4.6440
     4.6697   4.7074   4.7076   4.7576   4.7965   4.8363   4.8834   4.9546
     4.9704   5.1337   5.1366   5.1845   5.4607   5.5494   5.6453   5.6628
     5.7166   5.7222   6.2818   6.4229   6.7566   6.7885   6.9882   7.0978
     7.2594   7.7062   7.7558   8.0812   8.2942   8.5125   9.0637   9.3152
     9.6823  10.2047  10.3614  10.9911  11.1180  11.6038

          k = 0.0000 0.4330-0.0984 ( 16368 PWs)   bands (ev):

   -92.3500 -92.3495 -92.3225 -92.3223 -92.0060 -91.9660 -52.9527 -52.9487
   -52.9148 -52.9138 -52.8432 -52.8271 -52.7963 -52.7767 -52.7551 -52.7547
   -52.7256 -52.7251 -52.5176 -52.5124 -52.4891 -52.4804 -52.4780 -52.4371
   -47.9587 -24.0214 -23.9941 -23.9556   1.3985   1.8271   2.6129   3.0721
     3.3520   3.5203   3.6622   3.7852   3.8525   4.0021   4.1139   4.1909
     4.3252   4.3682   4.4029   4.5090   4.5208   4.6297   4.6489   4.6861
     4.7170   4.7561   4.7772   4.8213   4.8426   4.8705   4.9006   4.9471
     5.0004   5.0437   5.0988   5.1373   5.3794   5.3961   5.4214   5.6234
     5.8422   5.8912   6.3273   6.5358   6.7276   6.8260   7.0082   7.3283
     7.3945   7.5933   7.8646   8.0522   8.1158   8.3494   8.7946   9.3666
     9.4855   9.9991  10.4085  10.9527  11.3871  11.5268

          k =-0.3750 0.2165 0.0984 ( 16368 PWs)   bands (ev):

   -92.3495 -92.3495 -92.3225 -92.3225 -92.0064 -91.9659 -52.9489 -52.9486
   -52.9149 -52.9147 -52.8271 -52.8271 -52.7963 -52.7963 -52.7547 -52.7547
   -52.7256 -52.7256 -52.5184 -52.5128 -52.5074 -52.4800 -52.4776 -52.4179
   -47.9586 -24.0223 -23.9932 -23.9555   1.4016   1.8266   2.6172   3.0718
     3.3351   3.6032   3.7405   3.9527   3.9924   4.0351   4.1264   4.1521
     4.2069   4.2920   4.3593   4.4328   4.5143   4.5330   4.5893   4.6363
     4.6668   4.7039   4.7245   4.7457   4.8163   4.8347   4.8801   4.9548
     4.9848   5.1332   5.1632   5.1788   5.2686   5.5686   5.6467   5.7166
     5.7222   5.8648   6.3690   6.4361   6.6374   6.7685   7.0610   7.1116
     7.3570   7.6251   7.6991   8.0419   8.2568   8.6932   8.8420   9.3180
     9.5725  10.0401  10.5644  11.1119  11.1899  11.6237

          k =-0.3750 0.2165-0.1968 ( 16370 PWs)   bands (ev):

   -92.3495 -92.3495 -92.3225 -92.3225 -92.0064 -91.9659 -52.9489 -52.9486
   -52.9149 -52.9147 -52.8271 -52.8271 -52.7963 -52.7963 -52.7547 -52.7547
   -52.7256 -52.7256 -52.5184 -52.5128 -52.5074 -52.4800 -52.4776 -52.4179
   -47.9586 -24.0223 -23.9932 -23.9555   1.5131   1.6174   2.9680   3.1651
     3.1991   3.2642   3.8285   3.9171   4.0075   4.0180   4.1244   4.1728
     4.2073   4.2851   4.3822   4.4120   4.5179   4.5242   4.6212   4.6474
     4.6547   4.7006   4.7331   4.7368   4.8235   4.8440   4.8738   4.9546
     5.0189   5.1172   5.1340   5.1657   5.2523   5.5654   5.6808   5.7166
     5.7222   5.8619   6.3925   6.5136   6.6597   6.9242   7.0081   7.1677
     7.3166   7.4721   7.5899   8.1429   8.2091   8.6912   9.0557   9.0827
     9.3967  10.1892  10.3240  11.1484  11.5955  11.7901

          k = 0.5000-0.2887 0.0000 ( 16352 PWs)   bands (ev):

   -92.3494 -92.3494 -92.3226 -92.3226 -92.0064 -91.9659 -52.9482 -52.9479
   -52.9151 -52.9149 -52.8212 -52.8212 -52.8028 -52.8028 -52.7547 -52.7546
   -52.7257 -52.7256 -52.5184 -52.5128 -52.5074 -52.4800 -52.4776 -52.4179
   -47.9586 -24.0225 -23.9933 -23.9555   2.0724   2.1919   2.7267   2.8616
     2.9417   3.0457   3.9578   4.0495   4.0592   4.0932   4.1736   4.2301
     4.2443   4.3546   4.3558   4.4027   4.4289   4.5362   4.5388   4.5510
     4.5790   4.6300   4.6364   4.6525   4.7296   4.7624   4.8899   4.9786
     5.0968   5.1483   5.1640   5.2322   5.2500   5.2873   5.6230   5.7165
     5.7214   5.8205   6.2899   6.3674   6.5468   6.6504   6.7188   6.8790
     7.2016   7.5415   7.6160   8.1083   8.2638   8.4955   9.0912   9.2519
     9.6914  10.4522  10.4555  11.0213  11.2899  11.3489

          k = 0.5000-0.2887 0.0984 ( 16378 PWs)   bands (ev):

   -92.3494 -92.3494 -92.3226 -92.3226 -92.0064 -91.9659 -52.9482 -52.9479
   -52.9151 -52.9149 -52.8212 -52.8212 -52.8028 -52.8028 -52.7547 -52.7546
   -52.7257 -52.7256 -52.5184 -52.5128 -52.5074 -52.4800 -52.4776 -52.4179
   -47.9586 -24.0225 -23.9933 -23.9555   2.1118   2.2391   2.5397   2.6089
     3.2169   3.3129   3.9114   3.9516   4.0028   4.0546   4.1742   4.2085
     4.2896   4.3363   4.3776   4.4325   4.4514   4.5230   4.5322   4.5526
     4.5766   4.6242   4.6340   4.6367   4.7402   4.8090   4.8918   4.9831
     5.0994   5.1486   5.1571   5.2337   5.2502   5.2852   5.4350   5.6867
     5.7166   5.7214   6.2377   6.3918   6.6349   6.7744   6.9861   7.0266
     7.2150   7.5130   7.5433   8.0339   8.1778   8.6377   8.8088   9.3350
     9.5308  10.1074  10.3010  11.3682  11.4000  11.7550

          k = 0.5000-0.2887-0.1968 ( 16368 PWs)   bands (ev):

   -92.3494 -92.3494 -92.3226 -92.3226 -92.0064 -91.9659 -52.9482 -52.9479
   -52.9151 -52.9149 -52.8212 -52.8212 -52.8028 -52.8028 -52.7547 -52.7546
   -52.7257 -52.7256 -52.5184 -52.5128 -52.5074 -52.4800 -52.4776 -52.4179
   -47.9586 -24.0225 -23.9933 -23.9555   2.1755   2.3747   2.3850   2.3981
     3.4859   3.5730   3.7326   3.7567   3.9840   4.0546   4.1745   4.2075
     4.2880   4.3425   4.3959   4.4399   4.4939   4.4963   4.5253   4.5595
     4.5684   4.6156   4.6308   4.6324   4.7486   4.8605   4.8943   4.9959
     5.1030   5.1489   5.1492   5.2344   5.2484   5.2678   5.2928   5.5773
     5.7165   5.7213   6.1965   6.3779   6.7749   6.9623   6.9690   7.2937
     7.3419   7.4718   7.4924   7.8703   8.0769   8.6893   8.9650   8.9674
     9.3222  10.1500  10.1537  11.5476  11.8302  11.9643

          k =-0.1250 0.2165 0.0000 ( 16312 PWs)   bands (ev):

   -92.3499 -92.3497 -92.3225 -92.3224 -92.0064 -91.9659 -52.9521 -52.9504
   -52.9143 -52.9139 -52.8412 -52.8355 -52.7865 -52.7793 -52.7550 -52.7548
   -52.7254 -52.7252 -52.5182 -52.5127 -52.5049 -52.4801 -52.4777 -52.4206
   -47.9587 -24.0213 -23.9932 -23.9557   0.6487   1.4526   1.5850   3.5100
     3.6479   3.6583   3.7331   3.7812   3.8843   3.9747   4.0362   4.0746
     4.2379   4.3013   4.3787   4.4198   4.4958   4.5657   4.6251   4.6672
     4.7358   4.8082   4.9512   5.0017   5.0366   5.0587   5.0916   5.1155
     5.1639   5.2490   5.3186   5.3827   5.4214   5.5944   5.6817   5.9195
     6.0695   6.3827   6.5060   6.6178   6.8433   6.9177   7.4211   7.6610
     7.8357   8.0982   8.2079   8.3460   8.8748   8.9899   9.1455   9.3652
     9.4349   9.5406   9.7442   9.9462  10.6434  10.9890

          k =-0.1250 0.2165-0.0984 ( 16346 PWs)   bands (ev):

   -92.3499 -92.3497 -92.3225 -92.3224 -92.0064 -91.9659 -52.9521 -52.9504
   -52.9143 -52.9139 -52.8412 -52.8355 -52.7865 -52.7793 -52.7550 -52.7548
   -52.7254 -52.7252 -52.5182 -52.5127 -52.5049 -52.4801 -52.4777 -52.4206
   -47.9587 -24.0213 -23.9932 -23.9557   0.7025   1.1447   1.9752   3.1526
     3.5966   3.6809   3.7271   3.8651   3.9279   4.0136   4.0409   4.1097
     4.2130   4.3200   4.3851   4.4363   4.4991   4.5372   4.6148   4.6822
     4.7448   4.7969   4.9230   4.9979   5.0311   5.0570   5.0880   5.1004
     5.1696   5.3000   5.3101   5.3919   5.5675   5.5978   5.7602   5.9127
     6.1133   6.2873   6.4123   6.7261   6.9091   6.9876   7.3146   7.4419
     7.7918   8.0154   8.2106   8.4082   8.7701   8.8718   9.0687   9.3560
     9.4527   9.5925  10.0435  10.2268  10.7511  11.0205

          k = 0.1250-0.2165-0.0984 ( 16346 PWs)   bands (ev):

   -92.3499 -92.3497 -92.3225 -92.3224 -92.0064 -91.9659 -52.9521 -52.9504
   -52.9143 -52.9139 -52.8412 -52.8355 -52.7865 -52.7793 -52.7550 -52.7548
   -52.7254 -52.7252 -52.5182 -52.5127 -52.5049 -52.4801 -52.4777 -52.4206
   -47.9587 -24.0213 -23.9932 -23.9557   0.7031   1.1438   1.9747   3.1514
     3.5983   3.6790   3.7288   3.8736   3.9387   4.0097   4.0554   4.0914
     4.2522   4.2951   4.3236   4.4422   4.5076   4.5631   4.6183   4.6760
     4.7451   4.7983   4.9197   4.9998   5.0496   5.0678   5.0889   5.1106
     5.1734   5.2578   5.3177   5.3679   5.5460   5.5912   5.7334   5.9362
     6.0775   6.4028   6.4418   6.6687   6.8936   7.0317   7.2953   7.4458
     7.8659   7.9483   8.2326   8.3241   8.7720   8.8534   9.0330   9.3864
     9.4809   9.6347  10.0632  10.2332  10.6939  11.0490

          k =-0.1250-0.2165 0.0984 ( 16346 PWs)   bands (ev):

   -92.3499 -92.3499 -92.3224 -92.3224 -92.0062 -91.9660 -52.9522 -52.9519
   -52.9140 -52.9139 -52.8412 -52.8412 -52.7793 -52.7793 -52.7550 -52.7550
   -52.7252 -52.7252 -52.5179 -52.5126 -52.4980 -52.4802 -52.4778 -52.4279
   -47.9588 -24.0210 -23.9936 -23.9558   0.7018   1.1449   1.9754   3.1440
     3.5982   3.6615   3.7379   3.7646   3.8949   3.9741   4.0437   4.1168
     4.2288   4.2984   4.3800   4.4221   4.6141   4.6418   4.7012   4.7355
     4.7761   4.7833   4.8549   4.9107   4.9527   4.9845   5.1630   5.2573
     5.2877   5.3024   5.3195   5.3829   5.4101   5.5486   5.7771   5.9424
     6.1015   6.3147   6.4012   6.6280   6.9050   7.0834   7.3138   7.4302
     7.8428   7.9779   8.2297   8.4363   8.7813   8.8400   9.0722   9.2720
     9.4450   9.6075   9.9857  10.1859  10.7254  11.0124

          k =-0.1250 0.2165 0.1968 ( 16360 PWs)   bands (ev):

   -92.3499 -92.3497 -92.3225 -92.3224 -92.0064 -91.9659 -52.9521 -52.9504
[...]
     4.9568   5.0159   5.1526   5.1986   5.2457   5.2838   5.3970   5.5230
     5.6911   5.8207   5.9584   6.1921   6.5037   6.6194   7.0121   7.2683
     7.4561   7.7266   8.0077   8.1128   8.3381   8.4956   8.8018   9.2956
     9.8282  10.0027  10.3971  11.1101  11.3626  11.7262

          k =-0.3750 0.3608 0.0984 ( 16380 PWs)   bands (ev):

   -92.3495 -92.3494 -92.3226 -92.3225 -92.0063 -91.9659 -52.9488 -52.9480
   -52.9150 -52.9147 -52.8271 -52.8212 -52.8028 -52.7963 -52.7547 -52.7546
   -52.7257 -52.7256 -52.5182 -52.5128 -52.5049 -52.4801 -52.4777 -52.4206
   -47.9586 -24.0224 -23.9934 -23.9555   1.8502   2.2569   2.7056   2.9911
     3.0667   3.5789   3.7978   3.8964   3.9750   4.0645   4.0909   4.1884
     4.2241   4.2829   4.3446   4.4114   4.4575   4.5054   4.5267   4.5744
     4.6094   4.6421   4.6981   4.7293   4.7693   4.7858   4.8475   4.9540
     5.0391   5.0554   5.1271   5.1621   5.2642   5.3338   5.5783   5.6258
     5.6998   5.7425   5.9308   6.1002   6.5000   6.6226   7.0331   7.1901
     7.4211   7.5857   7.8201   8.1229   8.2690   8.8278   9.1528   9.4391
     9.5660  10.1999  10.5609  10.9944  11.3217  11.5678

          k = 0.3750-0.3608 0.0984 ( 16380 PWs)   bands (ev):

   -92.3495 -92.3494 -92.3226 -92.3225 -92.0063 -91.9659 -52.9488 -52.9480
   -52.9150 -52.9147 -52.8271 -52.8212 -52.8028 -52.7963 -52.7547 -52.7546
   -52.7257 -52.7256 -52.5182 -52.5128 -52.5049 -52.4801 -52.4777 -52.4206
   -47.9586 -24.0224 -23.9934 -23.9555   1.8499   2.2572   2.7067   2.9930
     3.0624   3.5767   3.8336   3.8874   3.9429   4.0536   4.0964   4.2015
     4.2458   4.2806   4.3324   4.4103   4.4539   4.4953   4.5393   4.5646
     4.5943   4.6438   4.6963   4.7377   4.7820   4.8014   4.8339   4.9434
     5.0418   5.0658   5.1264   5.1757   5.2644   5.3287   5.5620   5.5878
     5.6836   5.7305   6.0231   6.1187   6.5186   6.5876   6.9600   7.1440
     7.4667   7.6766   7.8617   8.1127   8.2832   8.8282   8.8762   9.3869
     9.9096  10.1252  10.4593  11.1972  11.3390  11.4632

          k =-0.1250-0.5052 0.0984 ( 16380 PWs)   bands (ev):

   -92.3499 -92.3495 -92.3225 -92.3223 -92.0060 -91.9660 -52.9521 -52.9487
   -52.9148 -52.9139 -52.8412 -52.8271 -52.7963 -52.7793 -52.7550 -52.7547
   -52.7256 -52.7252 -52.5175 -52.5124 -52.4842 -52.4805 -52.4783 -52.4419
   -47.9587 -24.0215 -23.9942 -23.9556   1.8451   2.2565   2.7084   2.9513
     3.1134   3.5505   3.6295   3.8485   3.8998   3.9669   4.0541   4.1650
     4.2358   4.3008   4.4097   4.4616   4.5464   4.5641   4.6392   4.6516
     4.6752   4.7312   4.7535   4.7865   4.8086   4.8354   4.8604   4.8896
     4.9368   4.9733   5.0234   5.2380   5.3909   5.4403   5.4662   5.5011
     5.5939   5.7476   5.9145   6.1621   6.4827   6.6577   7.1229   7.2767
     7.4666   7.6781   7.9003   8.0302   8.3212   8.5263   8.8590   9.3890
     9.7801  10.0790  10.3514  11.1012  11.3552  11.5720

          k =-0.1250 0.5052 0.1968 ( 16374 PWs)   bands (ev):

   -92.3499 -92.3494 -92.3226 -92.3223 -92.0060 -91.9660 -52.9521 -52.9480
   -52.9150 -52.9139 -52.8412 -52.8212 -52.8028 -52.7793 -52.7550 -52.7546
   -52.7257 -52.7252 -52.5176 -52.5124 -52.4891 -52.4804 -52.4780 -52.4371
   -47.9586 -24.0217 -23.9941 -23.9556   1.9558   2.0533   2.7942   2.8829
     3.3731   3.4665   3.6210   3.8477   3.8825   3.9179   4.0930   4.1730
     4.2814   4.3708   4.4024   4.4822   4.5042   4.5313   4.5753   4.6124
     4.6284   4.6945   4.7078   4.7647   4.7891   4.8198   4.9072   4.9398
     4.9751   5.0395   5.1718   5.2188   5.2314   5.2782   5.4047   5.4396
     5.6964   5.8236   5.8743   6.0129   6.6172   7.0185   7.0583   7.2107
     7.5241   7.7672   7.8870   7.9842   8.3018   8.4581   8.8028   9.3563
     9.6566   9.9951  10.4992  11.0984  11.1514  11.5020

          k =-0.3750 0.3608-0.1968 ( 16374 PWs)   bands (ev):

   -92.3495 -92.3494 -92.3226 -92.3225 -92.0063 -91.9659 -52.9488 -52.9480
   -52.9150 -52.9147 -52.8271 -52.8212 -52.8028 -52.7963 -52.7547 -52.7546
   -52.7257 -52.7256 -52.5182 -52.5128 -52.5049 -52.4801 -52.4777 -52.4206
   -47.9586 -24.0224 -23.9934 -23.9555   1.9500   2.0667   2.7952   2.8837
     3.3642   3.4953   3.7786   3.8467   3.9685   4.0089   4.0543   4.2023
     4.2336   4.3040   4.3557   4.4214   4.4487   4.5043   4.5375   4.5691
     4.6035   4.6491   4.6913   4.7307   4.7735   4.8047   4.8398   4.9704
     5.0422   5.0741   5.1275   5.1618   5.2136   5.2781   5.5496   5.5963
     5.6770   5.7214   5.9336   6.0766   6.6225   6.9178   6.9585   7.0975
     7.5186   7.6754   7.7679   8.0535   8.1934   8.7602   8.9768   9.4559
     9.8327  10.2101  10.2675  11.0245  11.2494  11.3786

          k =-0.2500 0.4330 0.0000 ( 16380 PWs)   bands (ev):

   -92.3497 -92.3494 -92.3226 -92.3224 -92.0062 -91.9660 -52.9504 -52.9480
   -52.9150 -52.9143 -52.8355 -52.8212 -52.8028 -52.7865 -52.7549 -52.7546
   -52.7257 -52.7254 -52.5179 -52.5126 -52.4980 -52.4802 -52.4778 -52.4279
   -47.9586 -24.0220 -23.9938 -23.9555   1.6925   2.4084   2.5954   3.2760
     3.3454   3.5918   3.6912   3.7642   3.8343   4.0257   4.0974   4.1379
     4.1796   4.3174   4.3276   4.3932   4.4708   4.5029   4.5467   4.5699
     4.6061   4.6302   4.7235   4.7675   4.8206   4.8350   4.8677   4.9913
     5.0399   5.0696   5.1555   5.1645   5.2415   5.2818   5.4024   5.4555
     5.6231   5.8543   5.8991   6.0160   6.1545   6.8157   7.0627   7.1911
     7.3586   7.4673   8.1448   8.3254   8.5641   8.6924   9.5321   9.9453
     9.9806  10.1410  10.3982  10.6645  11.0212  11.5630

          k =-0.2500 0.4330-0.0984 ( 16361 PWs)   bands (ev):

   -92.3497 -92.3494 -92.3226 -92.3224 -92.0062 -91.9660 -52.9504 -52.9480
   -52.9150 -52.9143 -52.8355 -52.8212 -52.8028 -52.7865 -52.7549 -52.7546
   -52.7257 -52.7254 -52.5179 -52.5126 -52.4980 -52.4802 -52.4778 -52.4279
   -47.9586 -24.0220 -23.9938 -23.9555   1.7409   2.1560   2.9173   3.3047
     3.3720   3.5233   3.6131   3.7622   3.8045   3.9496   4.0415   4.1518
     4.2623   4.3101   4.3549   4.4042   4.4502   4.4945   4.5341   4.5770
     4.6064   4.6569   4.7223   4.7735   4.8129   4.8355   4.8690   4.9667
     5.0454   5.0744   5.1503   5.1563   5.2321   5.2888   5.3654   5.5431
     5.5907   5.7284   5.9495   6.1606   6.3099   6.5719   6.9154   7.2668
     7.4707   7.6539   8.0532   8.1872   8.4001   9.0415   9.5514   9.8557
    10.0424  10.1069  10.3509  10.6322  10.9028  11.1138

          k = 0.2500-0.4330-0.0984 ( 16361 PWs)   bands (ev):

   -92.3497 -92.3494 -92.3226 -92.3224 -92.0062 -91.9660 -52.9504 -52.9480
   -52.9150 -52.9143 -52.8355 -52.8212 -52.8028 -52.7865 -52.7549 -52.7546
   -52.7257 -52.7254 -52.5179 -52.5126 -52.4980 -52.4802 -52.4778 -52.4279
   -47.9586 -24.0220 -23.9938 -23.9555   1.7423   2.1531   2.9177   3.3040
     3.3792   3.5309   3.5782   3.7725   3.8229   3.9468   4.0456   4.1391
     4.2755   4.3282   4.3672   4.3852   4.4612   4.5121   4.5332   4.5527
     4.5955   4.6353   4.7307   4.7629   4.8225   4.8479   4.8711   4.9592
     5.0274   5.0658   5.1440   5.1671   5.2312   5.2763   5.3992   5.5225
     5.5696   5.7385   5.9628   6.1579   6.3955   6.5752   6.8863   7.1564
     7.4348   7.6259   8.1325   8.2576   8.5058   9.0356   9.4420   9.8096
     9.9928  10.1348  10.3235  10.5959  10.9853  11.1107

          k =-0.2500-0.4330 0.0984 ( 16361 PWs)   bands (ev):

   -92.3497 -92.3497 -92.3224 -92.3224 -92.0060 -91.9660 -52.9506 -52.9502
   -52.9144 -52.9143 -52.8355 -52.8355 -52.7865 -52.7865 -52.7549 -52.7549
   -52.7254 -52.7254 -52.5175 -52.5124 -52.4842 -52.4805 -52.4783 -52.4419
   -47.9586 -24.0215 -23.9942 -23.9556   1.7383   2.1567   2.9196   3.3164
     3.3676   3.4994   3.6056   3.7192   3.8024   3.8701   4.0252   4.0552
     4.1091   4.3284   4.3884   4.4536   4.4841   4.5897   4.6315   4.6353
     4.6771   4.7109   4.7568   4.7978   4.8177   4.8333   4.9214   4.9439
     4.9713   5.0427   5.0527   5.1032   5.3723   5.4367   5.4484   5.5147
     5.5478   5.5981   5.9529   6.0462   6.3601   6.5939   6.9210   7.3827
     7.4544   7.6267   7.9490   8.1966   8.4558   8.9849   9.4659   9.8210
     9.9342  10.2343  10.3817  10.6615  10.8104  11.0714

          k =-0.2500 0.4330 0.1968 ( 16354 PWs)   bands (ev):

   -92.3497 -92.3494 -92.3226 -92.3224 -92.0062 -91.9660 -52.9504 -52.9480
   -52.9150 -52.9143 -52.8355 -52.8212 -52.8028 -52.7865 -52.7549 -52.7546
   -52.7257 -52.7254 -52.5179 -52.5126 -52.4980 -52.4802 -52.4778 -52.4279
   -47.9586 -24.0220 -23.9938 -23.9555   1.8481   1.9547   3.2638   3.3554
     3.4116   3.4385   3.4676   3.5575   3.8054   3.9786   4.0342   4.1524
     4.2822   4.3479   4.3833   4.4110   4.4376   4.4793   4.5279   4.5693
     4.5977   4.6512   4.7295   4.7733   4.8199   4.8548   4.8699   4.9234
     5.0337   5.0675   5.1430   5.1543   5.2281   5.2802   5.3781   5.5181
     5.6470   5.7197   6.0515   6.1983   6.2698   6.5311   6.9841   7.0948
     7.5281   7.7752   7.9467   8.1682   8.4003   9.4483   9.5161   9.7452
     9.9901  10.0756  10.2447  10.4368  10.6803  11.0153

          k =-0.3750 0.5052 0.0000 ( 16380 PWs)   bands (ev):

   -92.3495 -92.3495 -92.3225 -92.3225 -92.0062 -91.9660 -52.9489 -52.9486
   -52.9149 -52.9147 -52.8271 -52.8271 -52.7963 -52.7963 -52.7547 -52.7547
   -52.7256 -52.7256 -52.5179 -52.5126 -52.4981 -52.4803 -52.4778 -52.4279
   -47.9586 -24.0222 -23.9938 -23.9555   2.4056   2.5097   3.0119   3.1204
     3.2164   3.2220   3.3227   3.6519   3.8417   4.0743   4.1293   4.1849
     4.2241   4.2730   4.3320   4.3399   4.3528   4.4713   4.5070   4.5986
     4.6150   4.6404   4.7068   4.7297   4.7584   4.8183   4.8598   4.9505
     4.9562   5.0164   5.0742   5.0940   5.2513   5.3594   5.3858   5.4868
     5.5782   5.6020   6.0819   6.1177   6.3728   6.5134   6.6360   7.0652
     7.1618   7.6493   7.9668   8.2446   8.4852   8.6700   9.7570  10.0759
    10.5985  10.8604  10.8947  11.0466  11.1411  11.3208

          k = 0.2500-0.5774-0.0984 ( 16361 PWs)   bands (ev):

   -92.3497 -92.3495 -92.3225 -92.3224 -92.0060 -91.9660 -52.9504 -52.9487
   -52.9148 -52.9143 -52.8355 -52.8271 -52.7963 -52.7865 -52.7549 -52.7547
   -52.7256 -52.7254 -52.5176 -52.5124 -52.4891 -52.4804 -52.4780 -52.4371
   -47.9586 -24.0219 -23.9941 -23.9555   2.4492   2.5386   2.8266   2.9164
     3.2720   3.4564   3.5090   3.5669   3.7861   3.9988   4.0396   4.1217
     4.1749   4.2468   4.3578   4.4213   4.4721   4.5331   4.5507   4.5832
     4.6315   4.6757   4.7092   4.7465   4.7805   4.8281   4.8917   4.9306
     4.9423   5.0050   5.0438   5.0882   5.2380   5.3224   5.3761   5.5018
     5.6195   5.7954   5.8481   5.9826   6.0906   6.5457   6.8829   7.1227
     7.4335   7.6755   7.9285   8.2231   8.5400   8.7828   9.5496  10.0162
    10.0976  10.4264  10.7338  11.1423  11.2921  11.3745

          k =-0.3750 0.5052 0.0984 ( 16361 PWs)   bands (ev):

   -92.3495 -92.3495 -92.3225 -92.3225 -92.0062 -91.9660 -52.9489 -52.9486
   -52.9149 -52.9147 -52.8271 -52.8271 -52.7963 -52.7963 -52.7547 -52.7547
   -52.7256 -52.7256 -52.5179 -52.5126 -52.4981 -52.4803 -52.4778 -52.4279
   -47.9586 -24.0222 -23.9938 -23.9555   2.4458   2.5534   2.8325   2.9073
     3.2649   3.4533   3.5139   3.5502   3.9300   4.0023   4.0883   4.1465
     4.2414   4.2734   4.3407   4.3533   4.3579   4.4839   4.5180   4.5881
     4.6053   4.6269   4.7070   4.7247   4.7571   4.8138   4.8536   4.9434
     4.9896   5.0157   5.0783   5.0972   5.2142   5.3323   5.4795   5.4884
     5.6007   5.6252   5.8761   6.0408   6.1281   6.5686   6.8681   7.0529
     7.4614   7.5712   7.9711   8.2583   8.4393   8.9794   9.6474   9.9439
    10.1430  10.5115  10.7427  11.1498  11.2843  11.3405

          k = 0.3750-0.5052 0.0984 ( 16361 PWs)   bands (ev):

   -92.3495 -92.3495 -92.3225 -92.3225 -92.0062 -91.9660 -52.9489 -52.9486
   -52.9149 -52.9147 -52.8271 -52.8271 -52.7963 -52.7963 -52.7547 -52.7547
   -52.7256 -52.7256 -52.5179 -52.5126 -52.4981 -52.4803 -52.4778 -52.4279
   -47.9586 -24.0222 -23.9938 -23.9555   2.4448   2.5551   2.8295   2.9068
     3.2681   3.4517   3.5352   3.5444   3.9103   4.0154   4.0959   4.1370
     4.1795   4.2757   4.3393   4.3464   4.4383   4.4710   4.4963   4.6009
     4.6145   4.6264   4.6964   4.7323   4.7568   4.8317   4.8453   4.9436
     4.9786   5.0179   5.0765   5.0954   5.2272   5.3123   5.4860   5.5189
     5.5769   5.6154   5.8788   6.0506   6.1371   6.5432   6.8057   7.0747
     7.5544   7.7183   7.8299   8.2508   8.3816   8.8684   9.7909   9.9765
    10.2867  10.3966  10.6276  11.1128  11.1931  11.3824

          k =-0.3750 0.5052-0.1968 ( 16362 PWs)   bands (ev):

   -92.3495 -92.3495 -92.3225 -92.3225 -92.0062 -91.9660 -52.9489 -52.9486
   -52.9149 -52.9147 -52.8271 -52.8271 -52.7963 -52.7963 -52.7547 -52.7547
   -52.7256 -52.7256 -52.5179 -52.5126 -52.4981 -52.4803 -52.4778 -52.4279
   -47.9586 -24.0222 -23.9938 -23.9555   2.5141   2.6673   2.6828   2.7203
     3.3666   3.3820   3.6995   3.7432   3.8005   3.9559   4.0215   4.1460
     4.2012   4.2738   4.3424   4.3599   4.4342   4.4957   4.5122   4.5830
     4.5959   4.6167   4.6983   4.7265   4.7566   4.8218   4.8445   4.9485
     4.9818   5.0398   5.0852   5.1186   5.1602   5.3115   5.4887   5.5878
     5.6091   5.6746   5.7512   5.8358   6.1657   6.3264   7.0453   7.2843
     7.5715   7.6586   7.9072   8.2242   8.4182   9.2178   9.6024   9.7722
     9.9740  10.2745  10.4306  11.1466  11.2867  11.3915

     the Fermi energy is     7.3390 ev

!    total energy              =   -2762.34874606 Ry
     estimated scf accuracy    <          3.6E-10 Ry
     smearing contrib. (-TS)   =       0.00040543 Ry
     internal energy E=F+TS    =   -2762.34915148 Ry

     The total energy is F=E-TS. E is the sum of the following terms:
     one-electron contribution =   -2248.77896650 Ry
     hartree contribution      =    1180.42913128 Ry
     xc contribution           =    -261.73791389 Ry
     ewald contribution        =    -880.74852101 Ry
     DFT-D3 Dispersion         =      -0.36111675 Ry
     Hubbard energy            =       1.65675090 Ry
     one-center paw contrib.   =    -552.80851552 Ry

     convergence has been achieved in  32 iterations
     force_hub    :     32.57s CPU     32.66s WALL (       1 calls)
     dndtau       :     30.60s CPU     30.68s WALL (    4212 calls)
     dprojdtau    :     15.98s CPU     16.02s WALL (   25272 calls)
     calc_doverla :      9.82s CPU      9.85s WALL (    4212 calls)
     matel_dSdtau :     11.40s CPU     11.44s WALL (    8424 calls)

     Forces acting on atoms (cartesian axes, Ry/au):

     atom    1 type  1   force =    -0.00283979    0.00163955    0.00000000
     atom    2 type  2   force =    -0.00025578   -0.00170264   -0.00497757
     atom    3 type  2   force =    -0.00477242    0.00275536    0.00000000
     atom    4 type  2   force =    -0.00042452    0.00131257   -0.00178689
     atom    5 type  2   force =     0.00134664    0.00107283    0.00497757
     atom    6 type  2   force =    -0.00134898   -0.00028864    0.00178689
     atom    7 type  2   force =    -0.00097579   -0.00154749    0.01186143
     atom    8 type  2   force =     0.00027184    0.00026962    0.00285105
     atom    9 type  2   force =     0.00085227    0.00161881   -0.01186143
     atom   10 type  2   force =     0.00082618    0.00028595    0.00039418
     atom   11 type  2   force =     0.00016545   -0.00085847   -0.00039418
     atom   12 type  2   force =    -0.00009758   -0.00037024   -0.00285105
     atom   13 type  3   force =     0.00038445   -0.00022196    0.00000000
     atom   14 type  3   force =    -0.00114202   -0.00292522   -0.00686903
     atom   15 type  3   force =     0.00196231    0.00245163    0.00686903
     atom   16 type  3   force =     0.00273247   -0.00157759    0.00000000
     atom   17 type  3   force =     0.00087974   -0.00230435   -0.01098649
     atom   18 type  3   force =     0.00243550    0.00039030    0.01098649

     Total force =     0.028126     Total SCF correction =     0.000027


     Computing stress (Cartesian axis) and pressure

     stres_hub    :     47.26s CPU     47.45s WALL (       1 calls)
     dprojdepsilo :     43.22s CPU     43.38s WALL (     702 calls)
     dprojdeps1   :      5.06s CPU      5.06s WALL (     702 calls)
     dprojdeps2   :     23.54s CPU     23.64s WALL (     702 calls)
     dprojdeps3   :     14.63s CPU     14.68s WALL (     702 calls)
          total   stress  (Ry/bohr**3)                   (kbar)     P=      -33.23
  -0.00019070   0.00002479  -0.00001579          -28.05        3.65       -2.32
   0.00002479  -0.00016208  -0.00002735            3.65      -23.84       -4.02
  -0.00001579  -0.00002735  -0.00032484           -2.32       -4.02      -47.78


     Writing all to output data dir ./out/mg2ni_Nb.save/ :
     XML data file, charge density, pseudopotentials, collected wavefunctions
 
     init_run     :      6.18s CPU      7.02s WALL (       1 calls)
     electrons    :    327.97s CPU    328.65s WALL (       1 calls)
     forces       :     34.22s CPU     34.30s WALL (       1 calls)
     force_dftd3  :      0.22s CPU      0.22s WALL (       1 calls)
     stress       :     50.27s CPU     50.47s WALL (       1 calls)
     stres_dftd3  :      0.21s CPU      0.21s WALL (       1 calls)

     Called by init_run:
     wfcinit      :      4.91s CPU      5.59s WALL (       1 calls)
     potinit      :      0.60s CPU      0.63s WALL (       1 calls)
     hinit0       :      0.31s CPU      0.33s WALL (       1 calls)

     Called by electrons:
     c_bands      :    276.63s CPU    277.22s WALL (      32 calls)
     sum_band     :     42.95s CPU     42.99s WALL (      32 calls)
     v_of_rho     :      0.16s CPU      0.16s WALL (      33 calls)
     newd         :      5.79s CPU      5.82s WALL (      33 calls)
     PAW_pot      :      1.81s CPU      1.82s WALL (      33 calls)
     mix_rho      :      0.32s CPU      0.34s WALL (      32 calls)
     energy_dftd3 :      0.23s CPU      0.23s WALL (       1 calls)

     Called by c_bands:
     init_us_2    :      2.39s CPU      2.40s WALL (    5460 calls)
     cegterg      :    262.26s CPU    262.80s WALL (    2496 calls)

     Called by *egterg:
     cdiaghg      :     64.71s CPU     68.63s WALL (   11692 calls)
                                       68.60s GPU  (   11692 calls)
     h_psi        :     95.02s CPU     95.46s WALL (   11536 calls)
     s_psi        :     14.77s CPU     14.82s WALL (   11926 calls)
     g_psi        :      0.37s CPU      0.37s WALL (    8962 calls)

     Called by h_psi:
     h_psi:calbec :      0.20s CPU      0.20s WALL (   11536 calls)
     vloc_psi     :     56.64s CPU     57.01s WALL (   11536 calls)
                                       56.98s GPU  (   11536 calls)
     add_vuspsi   :     21.10s CPU     21.21s WALL (   11536 calls)
     vhpsi        :     16.72s CPU     16.74s WALL (   11536 calls)

     General routines
     calbec       :     15.41s CPU     15.50s WALL (  165422 calls)
     fft          :      0.52s CPU      0.57s WALL (     452 calls)
                                        0.05s GPU  (     419 calls)
     ffts         :      0.16s CPU      0.17s WALL (      65 calls)
                                        0.00s GPU  (      32 calls)
     fftw         :      0.62s CPU     59.97s WALL (  101402 calls)
                                       59.68s GPU  (  101402 calls)
     interpolate  :      0.71s CPU      0.73s WALL (      33 calls)
 

     Hubbard U routines
     new_ns       :     17.01s CPU     17.00s WALL (      32 calls)
     vhpsi        :     16.72s CPU     16.74s WALL (   11536 calls)
     force_hub    :     32.57s CPU     32.66s WALL (       1 calls)
     stres_hub    :     47.26s CPU     47.45s WALL (       1 calls)
 
     PWSCF        :   6m59.09s CPU   7m 1.56s WALL

 
   This run was terminated on:   6: 4:42  22May2026            

=------------------------------------------------------------------------------=
   JOB DONE.
=------------------------------------------------------------------------------=
