
     Program PWSCF v.7.5 starts on 22May2026 at  6: 4:42 

     This program is part of the open-source Quantum ESPRESSO suite
     for quantum simulation of materials; please cite
         "P. Giannozzi et al., J. Phys.:Condens. Matter 21 395502 (2009);
         "P. Giannozzi et al., J. Phys.:Condens. Matter 29 465901 (2017);
         "P. Giannozzi et al., J. Chem. Phys. 152 154105 (2020);
          URL http://www.quantum-espresso.org", 
     in publications or presentations arising from this work. More details at
     http://www.quantum-espresso.org/quote

     Serial multi-threaded version, running on    1 processor cores
     34265 MiB available memory on the printing compute node when the environment starts
 
     Reading input from mg2nih4_Nb.in
Warning: card &CELL ignored
Warning: card &FCP ignored
Warning: card &RISM ignored

     Current dimensions of program PWSCF are:
     Max number of different atomic species (ntypx) = 10
     Max number of k-points (npk) =  40000
     Max angular momentum in pseudopotentials (lmaxx) =  4

     File ./out/mg2nih4_Nb.update deleted, as requested

     File ./out/mg2nih4_Nb.bfgs deleted, as requested
     file Nb.pbe-spn-kjpaw_psl.0.3.0.UPF: wavefunction(s)  4S 4P renormalized
     file Mg.pbe-n-kjpaw_psl.0.3.0.UPF: wavefunction(s)  3S renormalized
 
 
     G-vector sticks info
     --------------------
     sticks:   dense  smooth     PW     G-vecs:    dense   smooth      PW
     Sum        6253    3123    899               326697   115555   17991
 
     Using Slab Decomposition
 


     bravais-lattice index     =            0
     lattice parameter (alat)  =      14.8381  a.u.
     unit-cell volume          =    1839.4989 (a.u.)^3
     number of atoms/cell      =           28
     number of atomic types    =            4
     number of electrons       =       115.00
     number of Kohn-Sham states=           70
     kinetic-energy cutoff     =      60.0000  Ry
     charge density cutoff     =     480.0000  Ry
     scf convergence threshold =      1.2E-09
     mixing beta               =       0.4000
     number of iterations used =            8  plain     mixing
     Exchange-correlation= PBE
                           (   1   4   3   4   0   0   0)

     GPU acceleration is ACTIVE.  1 visible GPUs per MPI rank

     Hubbard projectors: ortho-atomic
     Hubbard parameters of DFT+U (Dudarev formulation) in eV:
     U(Ni-3d) =  9.0000

     Internal variables: lda_plus_u = T, lda_plus_u_kind = 0

     Internal variables: orbital_resolved = F, hub_pot_fix = F, apply_U =  F

     celldm(1)=  14.838115  celldm(2)=   0.000000  celldm(3)=   0.000000
     celldm(4)=   0.000000  celldm(5)=   0.000000  celldm(6)=   0.000000

     crystal axes: (cart. coord. in units of alat)
               a(1) = (   1.000000   0.000000   0.000000 )  
               a(2) = (  -0.668677   0.743553   0.000000 )  
               a(3) = (  -0.298371   0.132953   0.757271 )  

     reciprocal axes: (cart. coord. in units 2 pi/alat)
               b(1) = (  1.000000  0.899299  0.236120 )  
               b(2) = (  0.000000  1.344893 -0.236120 )  
               b(3) = (  0.000000 -0.000000  1.320532 )  


     PseudoPot. # 1 for Nb read from file:
     ../pseudo/Nb.pbe-spn-kjpaw_psl.0.3.0.UPF
     MD5 check sum: 411d72ad547312f8017e2943ceca08cc
     Pseudo is Projector augmented-wave + core cor, Zval = 13.0
     Generated using "atomic" code by A. Dal Corso  v.5.0.99 svn rev. 10869
     Shape of augmentation charge: PSQ
     Using radial grid of 1227 points,  6 beta functions with: 
                l(1) =   0
                l(2) =   0
                l(3) =   1
                l(4) =   1
                l(5) =   2
                l(6) =   2
     Q(r) pseudized with 0 coefficients 


     PseudoPot. # 2 for Mg read from file:
     ../pseudo/Mg.pbe-n-kjpaw_psl.0.3.0.UPF
     MD5 check sum: 24ecedc7f3e3cbe212e682f4413594e4
     Pseudo is Projector augmented-wave + core cor, Zval =  2.0
     Generated using "atomic" code by A. Dal Corso  v.5.0.99 svn rev. 10869
     Shape of augmentation charge: PSQ
     Using radial grid of 1129 points,  4 beta functions with: 
                l(1) =   0
                l(2) =   0
                l(3) =   1
                l(4) =   1
     Q(r) pseudized with 0 coefficients 


     PseudoPot. # 3 for Ni read from file:
     ../pseudo/ni_pbe_v1.4.uspp.F.UPF
     MD5 check sum: 1ee80287db30b12d2bc1f57a5b5d6409
     Pseudo is Ultrasoft + core correction, Zval = 18.0
     Generated by new atomic code, or converted to UPF format
     Using radial grid of  865 points,  6 beta functions with: 
                l(1) =   0
                l(2) =   0
                l(3) =   1
                l(4) =   1
                l(5) =   2
                l(6) =   2
     Q(r) pseudized with 10 coefficients,  rinner =    0.980   0.980   0.980
                                                       0.980   0.980

     PseudoPot. # 4 for H  read from file:
     ../pseudo/H.pbe-rrkjus_psl.1.0.0.UPF
     MD5 check sum: f52b6d4d1c606e5624b1dc7b2218f220
     Pseudo is Ultrasoft, Zval =  1.0
     Generated using "atomic" code by A. Dal Corso  v.5.1
     Using radial grid of  929 points,  2 beta functions with: 
                l(1) =   0
                l(2) =   0
     Q(r) pseudized with 0 coefficients 


     atomic species   valence    mass     pseudopotential
     Nb               13.00    92.90637     Nb( 1.00)
     Mg                2.00    24.30500     Mg( 1.00)
     Ni               18.00    58.69340     Ni( 1.00)
     H                 1.00     1.00800     H ( 1.00)

     No symmetry found



   Cartesian axes

     site n.     atom                  positions (alat units)
         1        Nb     tau(   1) = (  -0.5449835   0.6998890   0.6954563  )
         2        Mg     tau(   2) = (  -0.4043135   0.6143021   0.3168210  )
         3        Mg     tau(   3) = (   0.4372657   0.2622039   0.4404497  )
         4        Mg     tau(   4) = (   0.5779358   0.1766170   0.0618144  )
         5        Mg     tau(   5) = (   0.0996665   0.8255868   0.5679530  )
         6        Mg     tau(   6) = (  -0.0667142   0.0509192   0.1893177  )
         7        Mg     tau(   7) = (  -0.0665313   0.4526072   0.5679530  )
         8        Mg     tau(   8) = (   0.0994835   0.4238988   0.1893177  )
         9        Ni     tau(   9) = (  -0.2193840   0.7839183   0.6960861  )
        10        Ni     tau(  10) = (  -0.2490730   0.3160130   0.3174507  )
        11        Ni     tau(  11) = (   0.2820252   0.5604930   0.4398200  )
        12        Ni     tau(  12) = (   0.2523362   0.0925877   0.0611846  )
        13        H      tau(  13) = (  -0.0640921   0.6609375   0.7172772  )
        14        H      tau(  14) = (  -0.0537902   0.2827795   0.3386418  )
        15        H      tau(  15) = (   0.0867424   0.5937265   0.4186289  )
        16        H      tau(  16) = (   0.0970443   0.2155685   0.0399935  )
        17        H      tau(  17) = (   0.6618369   0.1393567   0.3221854  )
        18        H      tau(  18) = (   0.5210736   0.2247341   0.7008207  )
        19        H      tau(  19) = (  -0.4881213   0.6517719   0.0564500  )
        20        H      tau(  20) = (  -0.6288847   0.7371494   0.4350853  )
        21        H      tau(  21) = (  -0.3270821   0.7653669   0.5274469  )
        22        H      tau(  22) = (  -0.3072943   0.4084971   0.1488116  )
        23        H      tau(  23) = (   0.3402465   0.4680089   0.6084592  )
        24        H      tau(  24) = (   0.3600343   0.1111391   0.2298238  )
        25        H      tau(  25) = (   0.0754276   0.2497323   0.6631919  )
        26        H      tau(  26) = (   0.3452564   0.4540025   0.2845565  )
        27        H      tau(  27) = (  -0.3123042   0.4225035   0.4727142  )
        28        H      tau(  28) = (  -0.0424754   0.6267738   0.0940789  )

     --------------------------------------------
     DFT-D3 Dispersion Correction (3-body terms):
     --------------------------------------------
       Reference C6 values for interpolation: 

         atom   Coordination number   C6
         H          0.912             6.05
         H          0.000            15.18
         Mg         0.000          1366.75
         Mg         0.963           902.54
         Mg         1.950           351.12
         Ni         0.000          1149.49
         Ni         1.794           356.66
         Ni         6.546           257.56
         Ni         6.292           283.75
         Nb         0.000          2950.50
         Nb         1.954          1161.16
         Nb         2.922           857.79

       Values used:

         atom   Coordination number  R0_AB[au]  C6      C8
         Nb        10.723            3.647    857.79 111659.18
         Mg         8.966            3.292    351.12  31436.69
         Mg         8.820            3.292    351.12  31436.69
         Mg         8.953            3.292    351.12  31436.69
         Mg         9.424            3.292    351.12  31436.69
         Mg         9.362            3.292    351.12  31436.69
         Mg         8.857            3.292    351.12  31436.69
         Mg         8.927            3.292    351.12  31436.69
         Ni         9.251            3.162    257.64  21588.48
         Ni         9.239            3.162    257.64  21588.63
         Ni         9.255            3.162    257.64  21588.42
         Ni         9.261            3.162    257.64  21588.35
         H          2.173            2.062      6.05     73.18
         H          2.172            2.062      6.05     73.18
         H          2.173            2.062      6.05     73.18
         H          2.173            2.062      6.05     73.18
         H          2.024            2.062      6.05     73.18
         H          2.025            2.062      6.05     73.18
         H          2.180            2.062      6.05     73.18
         H          2.193            2.062      6.05     73.18
         H          2.154            2.062      6.05     73.18
         H          2.173            2.062      6.05     73.18
         H          2.172            2.062      6.05     73.18
         H          2.002            2.062      6.05     73.18
         H          2.210            2.062      6.05     73.18
         H          2.111            2.062      6.05     73.18
         H          2.112            2.062      6.05     73.18
         H          2.277            2.062      6.05     73.18

         Molecular C6 ( Ry / a.u.^6 ) =     68668.02


     number of k points=   196  Marzari-Vanderbilt smearing, width (Ry)=  0.0100

     Number of k-points >= 100: set verbosity='high' to print them.

     Dense  grid:   326697 G-vectors     FFT dimensions: ( 108, 108,  90)

     Smooth grid:   115555 G-vectors     FFT dimensions: (  75,  75,  64)

     Estimated max dynamical RAM per process >       5.22 GB

     Check: negative core charge=   -0.000002

     Initial potential from superposition of free atoms

     starting charge     106.9913, renormalised to     115.0000

     STARTING HUBBARD OCCUPATIONS:

     =================== HUBBARD OCCUPATIONS ===================
     ------------------------ ATOM    9 ------------------------
     Tr[ns(  9)] =   8.00000
     eigenvalues:
       0.800  0.800  0.800  0.800  0.800
     eigenvectors (columns):
       1.000  0.000  0.000  0.000  0.000
       0.000  1.000  0.000  0.000  0.000
       0.000  0.000  1.000  0.000  0.000
       0.000  0.000  0.000  1.000  0.000
       0.000  0.000  0.000  0.000  1.000
     occupation matrix ns (before diag.):
       0.800  0.000  0.000  0.000  0.000
       0.000  0.800  0.000  0.000  0.000
       0.000  0.000  0.800  0.000  0.000
       0.000  0.000  0.000  0.800  0.000
       0.000  0.000  0.000  0.000  0.800
     ------------------------ ATOM   10 ------------------------
     Tr[ns( 10)] =   8.00000
     eigenvalues:
       0.800  0.800  0.800  0.800  0.800
     eigenvectors (columns):
       1.000  0.000  0.000  0.000  0.000
       0.000  1.000  0.000  0.000  0.000
       0.000  0.000  1.000  0.000  0.000
       0.000  0.000  0.000  1.000  0.000
       0.000  0.000  0.000  0.000  1.000
     occupation matrix ns (before diag.):
       0.800  0.000  0.000  0.000  0.000
       0.000  0.800  0.000  0.000  0.000
       0.000  0.000  0.800  0.000  0.000
       0.000  0.000  0.000  0.800  0.000
       0.000  0.000  0.000  0.000  0.800
     ------------------------ ATOM   11 ------------------------
     Tr[ns( 11)] =   8.00000
     eigenvalues:
       0.800  0.800  0.800  0.800  0.800
     eigenvectors (columns):
       1.000  0.000  0.000  0.000  0.000
       0.000  1.000  0.000  0.000  0.000
       0.000  0.000  1.000  0.000  0.000
       0.000  0.000  0.000  1.000  0.000
       0.000  0.000  0.000  0.000  1.000
     occupation matrix ns (before diag.):
       0.800  0.000  0.000  0.000  0.000
       0.000  0.800  0.000  0.000  0.000
       0.000  0.000  0.800  0.000  0.000
       0.000  0.000  0.000  0.800  0.000
       0.000  0.000  0.000  0.000  0.800
     ------------------------ ATOM   12 ------------------------
     Tr[ns( 12)] =   8.00000
     eigenvalues:
       0.800  0.800  0.800  0.800  0.800
     eigenvectors (columns):
       1.000  0.000  0.000  0.000  0.000
       0.000  1.000  0.000  0.000  0.000
       0.000  0.000  1.000  0.000  0.000
       0.000  0.000  0.000  1.000  0.000
       0.000  0.000  0.000  0.000  1.000
     occupation matrix ns (before diag.):
       0.800  0.000  0.000  0.000  0.000
       0.000  0.800  0.000  0.000  0.000
       0.000  0.000  0.800  0.000  0.000
       0.000  0.000  0.000  0.800  0.000
       0.000  0.000  0.000  0.000  0.800

     Number of occupied Hubbard levels =   32.0000

     Atomic wfc used for Hubbard projectors are orthogonalized

     Starting wfcs are  106 randomized atomic wfcs

     total cpu time spent up to now is       12.0 secs

     Self-consistent Calculation

     iteration #  1     ecut=    60.00 Ry     beta= 0.40
     Davidson diagonalization with overlap
     ethr =  1.00E-02,  avg # of iterations =  6.0

     =================== HUBBARD OCCUPATIONS ===================
     ------------------------ ATOM    9 ------------------------
     Tr[ns(  9)] =   1.80384
     eigenvalues:
       0.136  0.161  0.166  0.207  0.231
     eigenvectors (columns):
      -0.728 -0.395  0.385  0.248 -0.324
      -0.202 -0.553 -0.790 -0.158  0.067
       0.036  0.168 -0.086 -0.553 -0.811
      -0.523  0.280  0.107 -0.648  0.466
       0.393 -0.657  0.457 -0.434  0.129
     occupation matrix ns (before diag.):
       0.159 -0.009  0.012 -0.027  0.000
      -0.009  0.165  0.001  0.004  0.004
       0.012  0.001  0.221 -0.009  0.003
      -0.027  0.004 -0.009  0.189  0.023
       0.000  0.004  0.003  0.023  0.168
     ------------------------ ATOM   10 ------------------------
     Tr[ns( 10)] =   2.14360
     eigenvalues:
       0.164  0.188  0.194  0.255  0.271
     eigenvectors (columns):
      -0.698 -0.358  0.341 -0.009  0.518
      -0.118 -0.468 -0.452 -0.723 -0.198
       0.087  0.302  0.709 -0.613 -0.150
      -0.284  0.722 -0.420 -0.265  0.389
       0.641 -0.198  0.006 -0.176  0.720
     occupation matrix ns (before diag.):
       0.199 -0.011 -0.003  0.011  0.042
      -0.011  0.227  0.030  0.007 -0.002
      -0.003  0.030  0.218  0.005 -0.003
       0.011  0.007  0.005  0.204  0.031
       0.042 -0.002 -0.003  0.031  0.223
     ------------------------ ATOM   11 ------------------------
     Tr[ns( 11)] =   1.82169
     eigenvalues:
       0.144  0.154  0.174  0.209  0.230
     eigenvectors (columns):
      -0.769 -0.012  0.399 -0.038  0.497
      -0.274 -0.568 -0.402 -0.643 -0.166
       0.123  0.405  0.537 -0.673 -0.282
      -0.034  0.628 -0.594 -0.278  0.418
       0.562 -0.345  0.196 -0.235  0.686
     occupation matrix ns (before diag.):
       0.170 -0.010 -0.004  0.011  0.032
      -0.010  0.181  0.023  0.009 -0.000
      -0.004  0.023  0.190 -0.005 -0.005
       0.011  0.009 -0.005  0.178  0.023
       0.032 -0.000 -0.005  0.023  0.190
     ------------------------ ATOM   12 ------------------------
     Tr[ns( 12)] =   1.81983
     eigenvalues:
       0.146  0.165  0.168  0.202  0.229
     eigenvectors (columns):
       0.654  0.589 -0.003 -0.192 -0.433
       0.116 -0.109  0.970  0.172 -0.055
      -0.002 -0.158 -0.189  0.787 -0.566
       0.637 -0.110 -0.125  0.406  0.634
      -0.390  0.777  0.082  0.388  0.296
     occupation matrix ns (before diag.):
       0.170 -0.001  0.010 -0.028 -0.006
      -0.001  0.169  0.007 -0.001  0.003
       0.010  0.007  0.209 -0.011  0.001
      -0.028 -0.001 -0.011  0.189  0.023
      -0.006  0.003  0.001  0.023  0.173

     Number of occupied Hubbard levels =    7.5890

     total cpu time spent up to now is       39.4 secs

     total energy              =   -1878.02056207 Ry
     estimated scf accuracy    <     179.88142804 Ry

     iteration #  2     ecut=    60.00 Ry     beta= 0.40
     Davidson diagonalization with overlap
     ethr =  1.00E-02,  avg # of iterations =  4.7

     total cpu time spent up to now is       68.1 secs

     total energy              =   -1956.41629363 Ry
     estimated scf accuracy    <     146.65728885 Ry

     iteration #  3     ecut=    60.00 Ry     beta= 0.40
     Davidson diagonalization with overlap
     ethr =  1.00E-02,  avg # of iterations =  2.3

     total cpu time spent up to now is       87.3 secs

     total energy              =   -1958.36053849 Ry
     estimated scf accuracy    <      37.97217697 Ry

     iteration #  4     ecut=    60.00 Ry     beta= 0.40
     Davidson diagonalization with overlap
     ethr =  1.00E-02,  avg # of iterations =  2.0

     total cpu time spent up to now is      102.7 secs

     total energy              =   -1959.02080958 Ry
     estimated scf accuracy    <      11.64607839 Ry

     iteration #  5     ecut=    60.00 Ry     beta= 0.40
     Davidson diagonalization with overlap
     ethr =  1.00E-02,  avg # of iterations =  2.0

     total cpu time spent up to now is      117.4 secs

     total energy              =   -1960.01680295 Ry
     estimated scf accuracy    <       2.18595054 Ry

     iteration #  6     ecut=    60.00 Ry     beta= 0.40
     Davidson diagonalization with overlap
     ethr =  1.90E-03,  avg # of iterations =  2.4

     total cpu time spent up to now is      136.5 secs

     total energy              =   -1960.12871061 Ry
     estimated scf accuracy    <       6.23453021 Ry

     iteration #  7     ecut=    60.00 Ry     beta= 0.40
     Davidson diagonalization with overlap
     ethr =  1.90E-03,  avg # of iterations =  2.0

     total cpu time spent up to now is      151.7 secs

     total energy              =   -1960.68286328 Ry
     estimated scf accuracy    <       0.17222237 Ry

     iteration #  8     ecut=    60.00 Ry     beta= 0.40
     Davidson diagonalization with overlap
     ethr =  1.50E-04,  avg # of iterations =  7.6

     total cpu time spent up to now is      186.6 secs

     total energy              =   -1960.73155160 Ry
     estimated scf accuracy    <       0.37755570 Ry

     iteration #  9     ecut=    60.00 Ry     beta= 0.40
     Davidson diagonalization with overlap
     ethr =  1.50E-04,  avg # of iterations =  1.0

     total cpu time spent up to now is      199.2 secs

     total energy              =   -1960.67538157 Ry
     estimated scf accuracy    <       0.28788067 Ry

     iteration # 10     ecut=    60.00 Ry     beta= 0.40
     Davidson diagonalization with overlap
     ethr =  1.50E-04,  avg # of iterations =  2.0

     total cpu time spent up to now is      214.3 secs

     total energy              =   -1960.70896583 Ry
     estimated scf accuracy    <       0.00581534 Ry

     iteration # 11     ecut=    60.00 Ry     beta= 0.40
     Davidson diagonalization with overlap
     ethr =  5.06E-06,  avg # of iterations =  7.3

     total cpu time spent up to now is      249.8 secs

     total energy              =   -1960.70530994 Ry
     estimated scf accuracy    <       0.04344447 Ry

     iteration # 12     ecut=    60.00 Ry     beta= 0.40
     Davidson diagonalization with overlap
     ethr =  5.06E-06,  avg # of iterations =  3.2

     total cpu time spent up to now is      269.3 secs

     total energy              =   -1960.70950735 Ry
     estimated scf accuracy    <       0.00033885 Ry

     iteration # 13     ecut=    60.00 Ry     beta= 0.40
     Davidson diagonalization with overlap
     ethr =  2.95E-07,  avg # of iterations =  5.6

     total cpu time spent up to now is      296.7 secs

     total energy              =   -1960.70966675 Ry
     estimated scf accuracy    <       0.00080671 Ry

     iteration # 14     ecut=    60.00 Ry     beta= 0.40
     Davidson diagonalization with overlap
     ethr =  2.95E-07,  avg # of iterations =  2.0

     total cpu time spent up to now is      312.1 secs

     total energy              =   -1960.70980901 Ry
     estimated scf accuracy    <       0.00009167 Ry

     iteration # 15     ecut=    60.00 Ry     beta= 0.40
     Davidson diagonalization with overlap
     ethr =  7.97E-08,  avg # of iterations =  2.9

     total cpu time spent up to now is      331.5 secs

     total energy              =   -1960.70981091 Ry
     estimated scf accuracy    <       0.00022309 Ry

     iteration # 16     ecut=    60.00 Ry     beta= 0.40
     Davidson diagonalization with overlap
     ethr =  7.97E-08,  avg # of iterations =  2.0

     total cpu time spent up to now is      346.0 secs

     total energy              =   -1960.70981808 Ry
     estimated scf accuracy    <       0.00002579 Ry

     iteration # 17     ecut=    60.00 Ry     beta= 0.40
     Davidson diagonalization with overlap
     ethr =  2.24E-08,  avg # of iterations =  5.6

     total cpu time spent up to now is      373.0 secs

     total energy              =   -1960.70982614 Ry
     estimated scf accuracy    <       0.00000126 Ry

     iteration # 18     ecut=    60.00 Ry     beta= 0.40
     Davidson diagonalization with overlap
     ethr =  1.10E-09,  avg # of iterations =  8.2

     total cpu time spent up to now is      412.2 secs

     total energy              =   -1960.70982850 Ry
     estimated scf accuracy    <       0.00000018 Ry

     iteration # 19     ecut=    60.00 Ry     beta= 0.40
     Davidson diagonalization with overlap
     ethr =  1.57E-10,  avg # of iterations =  5.2

     total cpu time spent up to now is      437.8 secs

     total energy              =   -1960.70982855 Ry
     estimated scf accuracy    <       0.00000015 Ry

     iteration # 20     ecut=    60.00 Ry     beta= 0.40
     Davidson diagonalization with overlap
     ethr =  1.27E-10,  avg # of iterations =  1.8

     total cpu time spent up to now is      453.1 secs

     total energy              =   -1960.70982857 Ry
     estimated scf accuracy    <       0.00000002 Ry

     iteration # 21     ecut=    60.00 Ry     beta= 0.40
     Davidson diagonalization with overlap
     ethr =  1.62E-11,  avg # of iterations =  6.4

     total cpu time spent up to now is      482.5 secs

     total energy              =   -1960.70982858 Ry
     estimated scf accuracy    <       0.00000001 Ry

     iteration # 22     ecut=    60.00 Ry     beta= 0.40
     Davidson diagonalization with overlap
     ethr =  9.17E-12,  avg # of iterations =  2.0

     total cpu time spent up to now is      498.3 secs

     total energy              =   -1960.70982858 Ry
     estimated scf accuracy    <          3.1E-09 Ry

     iteration # 23     ecut=    60.00 Ry     beta= 0.40
     Davidson diagonalization with overlap
     ethr =  2.65E-12,  avg # of iterations =  4.6

     total cpu time spent up to now is      520.4 secs

     End of self-consistent calculation

     =================== HUBBARD OCCUPATIONS ===================
     ------------------------ ATOM    9 ------------------------
     Tr[ns(  9)] =   8.99780
     eigenvalues:
       0.856  0.889  0.891  0.923  0.940
     eigenvectors (columns):
       0.027 -0.379 -0.802 -0.393  0.243
      -0.203  0.872 -0.306 -0.031  0.323
      -0.090  0.226 -0.111 -0.504 -0.821
      -0.421 -0.090 -0.427  0.710 -0.357
       0.879  0.193 -0.262  0.293 -0.188
     occupation matrix ns (before diag.):
       0.899  0.005 -0.003 -0.013 -0.007
       0.005  0.893 -0.014 -0.009  0.003
      -0.003 -0.014  0.932  0.002  0.006
      -0.013 -0.009  0.002  0.907  0.023
      -0.007  0.003  0.006  0.023  0.868
     ------------------------ ATOM   10 ------------------------
     Tr[ns( 10)] =   9.02229
     eigenvalues:
       0.873  0.882  0.887  0.929  0.940
     eigenvectors (columns):
      -0.003  0.204  0.816 -0.345  0.417
       0.415 -0.108 -0.021  0.645  0.632
      -0.862  0.228  0.022  0.414  0.183
      -0.292 -0.840 -0.088 -0.291  0.342
      -0.008  0.435 -0.571 -0.457  0.526
     occupation matrix ns (before diag.):
       0.901  0.005 -0.002  0.013  0.018
       0.005  0.923  0.022  0.005  0.006
      -0.002  0.022  0.886 -0.004 -0.003
       0.013  0.005 -0.004  0.892  0.017
       0.018  0.006 -0.003  0.017  0.909
     ------------------------ ATOM   11 ------------------------
     Tr[ns( 11)] =   9.00674
     eigenvalues:
       0.854  0.889  0.897  0.924  0.939
     eigenvectors (columns):
       0.266 -0.069  0.848  0.111  0.440
       0.350  0.177 -0.344 -0.580  0.625
      -0.826 -0.235  0.174 -0.422  0.233
      -0.346  0.789 -0.042  0.396  0.315
      -0.067 -0.535 -0.362  0.562  0.511
     occupation matrix ns (before diag.):
       0.902  0.006  0.012  0.011  0.012
       0.006  0.917  0.025  0.006  0.006
       0.012  0.025  0.874 -0.012 -0.005
       0.011  0.006 -0.012  0.896  0.015
       0.012  0.006 -0.005  0.015  0.914
     ------------------------ ATOM   12 ------------------------
     Tr[ns( 12)] =   9.00537
     eigenvalues:
       0.860  0.877  0.894  0.929  0.942
     eigenvectors (columns):
       0.590  0.211  0.607 -0.387 -0.298
      -0.102 -0.918  0.264 -0.029 -0.275
       0.171 -0.238  0.108 -0.372  0.874
      -0.020  0.072  0.603  0.748  0.268
       0.782 -0.225 -0.432  0.389  0.004
     occupation matrix ns (before diag.):
       0.891  0.010 -0.010 -0.014 -0.020
       0.010  0.883 -0.014 -0.003 -0.001
      -0.010 -0.014  0.933  0.002 -0.010
      -0.014 -0.003  0.002  0.917  0.011
      -0.020 -0.001 -0.010  0.011  0.878

     Number of occupied Hubbard levels =   36.0322

     Number of k-points >= 100: set verbosity='high' to print the bands.

     the Fermi energy is     6.7755 ev

!    total energy              =   -1960.70982858 Ry
     estimated scf accuracy    <          2.8E-10 Ry
     smearing contrib. (-TS)   =      -0.00020707 Ry
     internal energy E=F+TS    =   -1960.70962151 Ry

     The total energy is F=E-TS. E is the sum of the following terms:
     one-electron contribution =   -1504.88630993 Ry
     hartree contribution      =     790.58593055 Ry
     xc contribution           =    -195.09966708 Ry
     ewald contribution        =    -624.68575770 Ry
     DFT-D3 Dispersion         =      -0.33846232 Ry
     Hubbard energy            =       1.17093675 Ry
     one-center paw contrib.   =    -427.45629178 Ry

     convergence has been achieved in  23 iterations
     force_hub    :    189.31s CPU    189.67s WALL (       1 calls)
     dndtau       :    185.52s CPU    185.88s WALL (   16464 calls)
     dprojdtau    :     35.26s CPU     35.36s WALL (   65856 calls)
     calc_doverla :    133.89s CPU    134.04s WALL (   16464 calls)
     matel_dSdtau :     33.10s CPU     33.29s WALL (   32928 calls)

     Forces acting on atoms (cartesian axes, Ry/au):

     atom    1 type  1   force =    -0.00403947   -0.02406987    0.02317049
     atom    2 type  2   force =     0.00720805   -0.00006431   -0.00386700
     atom    3 type  2   force =     0.00025995    0.00239333    0.00009274
     atom    4 type  2   force =     0.00192753    0.00581373    0.00605088
     atom    5 type  2   force =    -0.00139440   -0.00322626   -0.00015794
     atom    6 type  2   force =     0.00001585    0.00884339   -0.00336931
     atom    7 type  2   force =    -0.00564570    0.00251331   -0.00088372
     atom    8 type  2   force =    -0.00455155   -0.00410699   -0.00358863
     atom    9 type  3   force =     0.01968796    0.01368255    0.00053399
     atom   10 type  3   force =     0.00627168   -0.00699536    0.00687207
     atom   11 type  3   force =    -0.00714828   -0.00714069   -0.02964588
     atom   12 type  3   force =    -0.00560866    0.01569282   -0.00290467
     atom   13 type  4   force =     0.00819974   -0.00276049    0.00037564
     atom   14 type  4   force =     0.00947087   -0.00223928    0.00215752
     atom   15 type  4   force =    -0.01316852   -0.00086796   -0.00217164
     atom   16 type  4   force =    -0.00249898    0.00594881    0.00128221
     atom   17 type  4   force =    -0.00303467   -0.00448193   -0.00413226
     atom   18 type  4   force =     0.00808551    0.00441623   -0.00126624
     atom   19 type  4   force =     0.00897411   -0.02311619   -0.01043361
     atom   20 type  4   force =     0.00723524    0.01100552    0.01547010
     atom   21 type  4   force =    -0.02330862   -0.01298077    0.00199912
     atom   22 type  4   force =    -0.00053370    0.01895739   -0.02708981
     atom   23 type  4   force =     0.01125369    0.00965067    0.01643619
     atom   24 type  4   force =     0.00083376    0.00803506    0.01710229
     atom   25 type  4   force =     0.01008890   -0.01379879   -0.00611143
     atom   26 type  4   force =    -0.00317457   -0.00272513   -0.00682043
     atom   27 type  4   force =    -0.00147978    0.00439514    0.00380290
     atom   28 type  4   force =    -0.02392595   -0.00277391    0.00709642

     Total force =     0.093976     Total SCF correction =     0.000028


     Computing stress (Cartesian axis) and pressure

     stres_hub    :    123.08s CPU    123.56s WALL (       1 calls)
     dprojdepsilo :    115.13s CPU    115.59s WALL (    1764 calls)
     dprojdeps1   :      7.99s CPU      8.00s WALL (    1764 calls)
     dprojdeps2   :     58.06s CPU     58.27s WALL (    1764 calls)
     dprojdeps3   :     49.08s CPU     49.31s WALL (    1764 calls)
          total   stress  (Ry/bohr**3)                   (kbar)     P=      -30.04
  -0.00019261  -0.00002874   0.00009214          -28.33       -4.23       13.55
  -0.00002874  -0.00020750   0.00007771           -4.23      -30.52       11.43
   0.00009214   0.00007771  -0.00021259           13.55       11.43      -31.27


     Writing all to output data dir ./out/mg2nih4_Nb.save/ :
     XML data file, charge density, pseudopotentials, collected wavefunctions
 
     init_run     :     10.60s CPU     11.78s WALL (       1 calls)
     electrons    :    507.07s CPU    508.36s WALL (       1 calls)
     forces       :    192.14s CPU    192.50s WALL (       1 calls)
     force_dftd3  :      0.62s CPU      0.62s WALL (       1 calls)
     stress       :    128.43s CPU    128.91s WALL (       1 calls)
     stres_dftd3  :      0.62s CPU      0.62s WALL (       1 calls)

     Called by init_run:
     wfcinit      :      9.34s CPU     10.38s WALL (       1 calls)
     potinit      :      0.49s CPU      0.52s WALL (       1 calls)
     hinit0       :      0.36s CPU      0.38s WALL (       1 calls)

     Called by electrons:
     c_bands      :    446.71s CPU    447.86s WALL (      23 calls)
     sum_band     :     54.71s CPU     54.79s WALL (      23 calls)
     v_of_rho     :      0.12s CPU      0.13s WALL (      24 calls)
     newd         :      3.77s CPU      3.81s WALL (      24 calls)
     PAW_pot      :      0.94s CPU      0.96s WALL (      24 calls)
     mix_rho      :      0.20s CPU      0.22s WALL (      23 calls)
     energy_dftd3 :      0.57s CPU      0.57s WALL (       1 calls)

     Called by c_bands:
     init_us_2    :      5.55s CPU      5.57s WALL (   10192 calls)
     cegterg      :    426.33s CPU    427.40s WALL (    4508 calls)

     Called by *egterg:
     cdiaghg      :    109.78s CPU    116.05s WALL (   22500 calls)
                                      115.99s GPU  (   22500 calls)
     h_psi        :    159.86s CPU    160.68s WALL (   22108 calls)
     s_psi        :     26.65s CPU     26.77s WALL (   23088 calls)
     g_psi        :      0.57s CPU      0.57s WALL (   17404 calls)

     Called by h_psi:
     h_psi:calbec :      0.34s CPU      0.35s WALL (   22108 calls)
     vloc_psi     :    102.53s CPU    103.19s WALL (   22108 calls)
                                      103.14s GPU  (   22108 calls)
     add_vuspsi   :     33.35s CPU     33.55s WALL (   22108 calls)
     vhpsi        :     23.05s CPU     23.10s WALL (   22108 calls)

     General routines
     calbec       :     15.79s CPU     15.94s WALL (  586548 calls)
     fft          :      0.36s CPU      0.41s WALL (     335 calls)
                                        0.05s GPU  (     311 calls)
     ffts         :      0.19s CPU      0.20s WALL (      47 calls)
                                        0.00s GPU  (      23 calls)
     fftw         :      1.21s CPU    108.55s WALL (  164118 calls)
                                      108.15s GPU  (  164118 calls)
     interpolate  :      0.58s CPU      0.60s WALL (      24 calls)
 

     Hubbard U routines
     new_ns       :     14.68s CPU     14.69s WALL (      23 calls)
     vhpsi        :     23.05s CPU     23.10s WALL (   22108 calls)
     force_hub    :    189.31s CPU    189.67s WALL (       1 calls)
     stres_hub    :    123.08s CPU    123.56s WALL (       1 calls)
 
     PWSCF        :  13m58.82s CPU  14m 3.00s WALL

 
   This run was terminated on:   6:18:45  22May2026            

=------------------------------------------------------------------------------=
   JOB DONE.
=------------------------------------------------------------------------------=
