
     Program PWSCF v.7.5 starts on 28May2026 at  2: 6:23 

     This program is part of the open-source Quantum ESPRESSO suite
     for quantum simulation of materials; please cite
         "P. Giannozzi et al., J. Phys.:Condens. Matter 21 395502 (2009);
         "P. Giannozzi et al., J. Phys.:Condens. Matter 29 465901 (2017);
         "P. Giannozzi et al., J. Chem. Phys. 152 154105 (2020);
          URL http://www.quantum-espresso.org", 
     in publications or presentations arising from this work. More details at
     http://www.quantum-espresso.org/quote

     Serial multi-threaded version, running on    1 processor cores
     29141 MiB available memory on the printing compute node when the environment starts
 
     Reading input from ni.in
Warning: card &CELL ignored
Warning: card &FCP ignored
Warning: card &RISM ignored

     Current dimensions of program PWSCF are:
     Max number of different atomic species (ntypx) = 10
     Max number of k-points (npk) =  40000
     Max angular momentum in pseudopotentials (lmaxx) =  4
     Message from routine setup:
     using ibrav=0 with symmetry is DISCOURAGED, use correct ibrav instead
 
 
     G-vector sticks info
     --------------------
     sticks:   dense  smooth     PW     G-vecs:    dense   smooth      PW
     Sum         745     367    121                13323     4645     941
 
     Using Slab Decomposition
 


     bravais-lattice index     =            0
     lattice parameter (alat)  =       4.7089  a.u.
     unit-cell volume          =      73.8319 (a.u.)^3
     number of atoms/cell      =            1
     number of atomic types    =            1
     number of electrons       =        18.00
     number of Kohn-Sham states=           13
     kinetic-energy cutoff     =      60.0000  Ry
     charge density cutoff     =     480.0000  Ry
     scf convergence threshold =      1.2E-09
     mixing beta               =       0.4000
     number of iterations used =            8  plain     mixing
     Exchange-correlation=  SLA  PW   PBX  PBC
                           (   1   4   3   4   0   0   0)

     GPU acceleration is ACTIVE.  1 visible GPUs per MPI rank

     Hubbard projectors: ortho-atomic
     Hubbard parameters of DFT+U (Dudarev formulation) in eV:
     U(Ni-3d) =  9.0000

     Internal variables: lda_plus_u = T, lda_plus_u_kind = 0

     Internal variables: orbital_resolved = F, hub_pot_fix = F, apply_U =  F

     celldm(1)=   4.708903  celldm(2)=   0.000000  celldm(3)=   0.000000
     celldm(4)=   0.000000  celldm(5)=   0.000000  celldm(6)=   0.000000

     crystal axes: (cart. coord. in units of alat)
               a(1) = (   0.000000   0.707107   0.707107 )  
               a(2) = (   0.707107   0.000000   0.707107 )  
               a(3) = (   0.707107   0.707107   0.000000 )  

     reciprocal axes: (cart. coord. in units 2 pi/alat)
               b(1) = ( -0.707107  0.707107  0.707107 )  
               b(2) = (  0.707107 -0.707107  0.707107 )  
               b(3) = (  0.707107  0.707107 -0.707107 )  


     PseudoPot. # 1 for Ni read from file:
     /home/x/Workspace/espresso/pseudo/ni_pbe_v1.4.uspp.F.UPF
     MD5 check sum: 1ee80287db30b12d2bc1f57a5b5d6409
     Pseudo is Ultrasoft + core correction, Zval = 18.0
     Generated by new atomic code, or converted to UPF format
     Using radial grid of  865 points,  6 beta functions with: 
                l(1) =   0
                l(2) =   0
                l(3) =   1
                l(4) =   1
                l(5) =   2
                l(6) =   2
     Q(r) pseudized with 10 coefficients,  rinner =    0.980   0.980   0.980
                                                       0.980   0.980

     atomic species   valence    mass     pseudopotential
     Ni               18.00    58.69340     Ni( 1.00)

     Starting magnetic structure 
     atomic species   magnetization
     Ni              0.100

     48 Sym. Ops., with inversion, found



   Cartesian axes

     site n.     atom                  positions (alat units)
         1        Ni     tau(   1) = (   0.0000000   0.0000000   0.0000000  )

     --------------------------------------------
     DFT-D3 Dispersion Correction (3-body terms):
     --------------------------------------------
       Reference C6 values for interpolation: 

         atom   Coordination number   C6
         Ni         0.000          1149.49
         Ni         1.794           356.66
         Ni         6.546           257.56
         Ni         6.292           283.75

       Values used:

         atom   Coordination number  R0_AB[au]  C6      C8
         Ni         8.837            3.162    257.74  21596.95

         Molecular C6 ( Ry / a.u.^6 ) =       257.74


     number of k points=   145  Marzari-Vanderbilt smearing, width (Ry)=  0.0100

     Number of k-points >= 100: set verbosity='high' to print them.

     Dense  grid:    13323 G-vectors     FFT dimensions: (  36,  36,  36)

     Smooth grid:     4645 G-vectors     FFT dimensions: (  24,  24,  24)

     Estimated max dynamical RAM per process >     103.88 MB

     Check: negative core charge=   -0.000011
     Generating pointlists ...
     new r_m :   0.4125 (alat units)  1.9424 (a.u.) for type    1

     Initial potential from superposition of free atoms

     starting charge      16.0000, renormalised to      18.0000

     STARTING HUBBARD OCCUPATIONS:

     =================== HUBBARD OCCUPATIONS ===================
     ------------------------ ATOM    1 ------------------------
     Tr[ns(  1)] (up, down, total) =   5.00000  3.00000  8.00000
     Atomic magnetic moment for atom   1 =   2.00000
     SPIN  1
     eigenvalues:
       1.000  1.000  1.000  1.000  1.000
     eigenvectors (columns):
       1.000  0.000  0.000  0.000  0.000
       0.000  1.000  0.000  0.000  0.000
       0.000  0.000  1.000  0.000  0.000
       0.000  0.000  0.000  1.000  0.000
       0.000  0.000  0.000  0.000  1.000
     occupation matrix ns (before diag.):
       1.000  0.000  0.000  0.000  0.000
       0.000  1.000  0.000  0.000  0.000
       0.000  0.000  1.000  0.000  0.000
       0.000  0.000  0.000  1.000  0.000
       0.000  0.000  0.000  0.000  1.000
     SPIN  2
     eigenvalues:
       0.600  0.600  0.600  0.600  0.600
     eigenvectors (columns):
       1.000  0.000  0.000  0.000  0.000
       0.000  1.000  0.000  0.000  0.000
       0.000  0.000  1.000  0.000  0.000
       0.000  0.000  0.000  1.000  0.000
       0.000  0.000  0.000  0.000  1.000
     occupation matrix ns (before diag.):
       0.600  0.000  0.000  0.000  0.000
       0.000  0.600  0.000  0.000  0.000
       0.000  0.000  0.600  0.000  0.000
       0.000  0.000  0.000  0.600  0.000
       0.000  0.000  0.000  0.000  0.600

     Number of occupied Hubbard levels =    8.0000

     Atomic wfc used for Hubbard projectors are orthogonalized

     Starting wfcs are   13 randomized atomic wfcs

     total cpu time spent up to now is        2.3 secs

     Self-consistent Calculation

     iteration #  1     ecut=    60.00 Ry     beta= 0.40
     Davidson diagonalization with overlap
     ethr =  1.00E-02,  avg # of iterations =  4.4

     =================== HUBBARD OCCUPATIONS ===================
     ------------------------ ATOM    1 ------------------------
     Tr[ns(  1)] (up, down, total) =   3.33194  1.69636  5.02830
     Atomic magnetic moment for atom   1 =   1.63558
     SPIN  1
     eigenvalues:
       0.648  0.648  0.648  0.694  0.694
     eigenvectors (columns):
      -0.000  0.000 -0.000  0.076 -0.997
      -0.252  0.879 -0.406 -0.000  0.000
      -0.561  0.209  0.801 -0.000  0.000
       0.000 -0.000  0.000 -0.997 -0.076
       0.789  0.429  0.440  0.000 -0.000
     occupation matrix ns (before diag.):
       0.694 -0.000 -0.000  0.000  0.000
      -0.000  0.648 -0.000  0.000  0.000
      -0.000 -0.000  0.648  0.000  0.000
       0.000  0.000  0.000  0.694 -0.000
       0.000  0.000  0.000 -0.000  0.648
     SPIN  2
     eigenvalues:
       0.311  0.311  0.311  0.382  0.382
     eigenvectors (columns):
      -0.000 -0.000 -0.000  0.234 -0.972
      -0.257  0.831 -0.494 -0.000  0.000
      -0.533  0.305  0.789 -0.000 -0.000
       0.000 -0.000  0.000 -0.972 -0.234
       0.806  0.466  0.364  0.000 -0.000
     occupation matrix ns (before diag.):
       0.382 -0.000 -0.000  0.000  0.000
      -0.000  0.311 -0.000  0.000  0.000
      -0.000 -0.000  0.311  0.000  0.000
       0.000  0.000  0.000  0.382 -0.000
       0.000  0.000  0.000 -0.000  0.311

     Number of occupied Hubbard levels =    5.0283

     total cpu time spent up to now is        7.0 secs

     total energy              =    -335.02193551 Ry
     estimated scf accuracy    <      26.67514444 Ry

     total magnetization       =     1.52 Bohr mag/cell
     absolute magnetization    =     1.63 Bohr mag/cell

     iteration #  2     ecut=    60.00 Ry     beta= 0.40
     Davidson diagonalization with overlap
     ethr =  1.00E-02,  avg # of iterations =  3.0

     total cpu time spent up to now is       10.6 secs

     total energy              =    -341.50128547 Ry
     estimated scf accuracy    <       7.76317299 Ry

     total magnetization       =     0.10 Bohr mag/cell
     absolute magnetization    =     0.24 Bohr mag/cell

     iteration #  3     ecut=    60.00 Ry     beta= 0.40
     Davidson diagonalization with overlap
     ethr =  1.00E-02,  avg # of iterations =  2.0

     total cpu time spent up to now is       13.3 secs

     total energy              =    -342.83842861 Ry
     estimated scf accuracy    <       0.23760340 Ry

     total magnetization       =     1.13 Bohr mag/cell
     absolute magnetization    =     1.36 Bohr mag/cell

     iteration #  4     ecut=    60.00 Ry     beta= 0.40
     Davidson diagonalization with overlap
     ethr =  1.32E-03,  avg # of iterations =  1.4

     total cpu time spent up to now is       15.6 secs

     total energy              =    -342.92501762 Ry
     estimated scf accuracy    <       0.16125027 Ry

     total magnetization       =     0.82 Bohr mag/cell
     absolute magnetization    =     1.08 Bohr mag/cell

     iteration #  5     ecut=    60.00 Ry     beta= 0.40
     Davidson diagonalization with overlap
     ethr =  8.96E-04,  avg # of iterations =  2.0

     total cpu time spent up to now is       18.4 secs

     total energy              =    -342.94404471 Ry
     estimated scf accuracy    <       0.00569857 Ry

     total magnetization       =     0.89 Bohr mag/cell
     absolute magnetization    =     1.15 Bohr mag/cell

     iteration #  6     ecut=    60.00 Ry     beta= 0.40
     Davidson diagonalization with overlap
     ethr =  3.17E-05,  avg # of iterations =  2.1

     total cpu time spent up to now is       21.2 secs

     total energy              =    -342.94542231 Ry
     estimated scf accuracy    <       0.00183053 Ry

     total magnetization       =     0.85 Bohr mag/cell
     absolute magnetization    =     1.12 Bohr mag/cell

     iteration #  7     ecut=    60.00 Ry     beta= 0.40
     Davidson diagonalization with overlap
     ethr =  1.02E-05,  avg # of iterations =  1.4

     total cpu time spent up to now is       23.4 secs

     total energy              =    -342.94573941 Ry
     estimated scf accuracy    <       0.00010543 Ry

     total magnetization       =     0.87 Bohr mag/cell
     absolute magnetization    =     1.13 Bohr mag/cell

     iteration #  8     ecut=    60.00 Ry     beta= 0.40
     Davidson diagonalization with overlap
     ethr =  5.86E-07,  avg # of iterations =  1.2

     total cpu time spent up to now is       25.5 secs

     total energy              =    -342.94576575 Ry
     estimated scf accuracy    <       0.00016950 Ry

     total magnetization       =     0.88 Bohr mag/cell
     absolute magnetization    =     1.13 Bohr mag/cell

     iteration #  9     ecut=    60.00 Ry     beta= 0.40
     Davidson diagonalization with overlap
     ethr =  5.86E-07,  avg # of iterations =  1.6

     total cpu time spent up to now is       27.8 secs

     total energy              =    -342.94568926 Ry
     estimated scf accuracy    <       0.00056209 Ry

     total magnetization       =     0.87 Bohr mag/cell
     absolute magnetization    =     1.13 Bohr mag/cell

     iteration # 10     ecut=    60.00 Ry     beta= 0.40
     Davidson diagonalization with overlap
     ethr =  5.86E-07,  avg # of iterations =  2.0

     total cpu time spent up to now is       30.6 secs

     total energy              =    -342.94577183 Ry
     estimated scf accuracy    <       0.00002703 Ry

     total magnetization       =     0.89 Bohr mag/cell
     absolute magnetization    =     1.14 Bohr mag/cell

     iteration # 11     ecut=    60.00 Ry     beta= 0.40
     Davidson diagonalization with overlap
     ethr =  1.50E-07,  avg # of iterations =  2.0

     total cpu time spent up to now is       33.3 secs

     total energy              =    -342.94577968 Ry
     estimated scf accuracy    <       0.00000449 Ry

     total magnetization       =     0.89 Bohr mag/cell
     absolute magnetization    =     1.14 Bohr mag/cell

     iteration # 12     ecut=    60.00 Ry     beta= 0.40
     Davidson diagonalization with overlap
     ethr =  2.49E-08,  avg # of iterations =  1.1

     total cpu time spent up to now is       35.3 secs

     total energy              =    -342.94577985 Ry
     estimated scf accuracy    <       0.00000123 Ry

     total magnetization       =     0.90 Bohr mag/cell
     absolute magnetization    =     1.15 Bohr mag/cell

     iteration # 13     ecut=    60.00 Ry     beta= 0.40
     Davidson diagonalization with overlap
     ethr =  6.82E-09,  avg # of iterations =  2.0

     total cpu time spent up to now is       38.1 secs

     total energy              =    -342.94578218 Ry
     estimated scf accuracy    <       0.00000019 Ry

     total magnetization       =     0.90 Bohr mag/cell
     absolute magnetization    =     1.15 Bohr mag/cell

     iteration # 14     ecut=    60.00 Ry     beta= 0.40
     Davidson diagonalization with overlap
     ethr =  1.07E-09,  avg # of iterations =  1.6

     total cpu time spent up to now is       40.5 secs

     total energy              =    -342.94578235 Ry
     estimated scf accuracy    <       0.00000008 Ry

     total magnetization       =     0.90 Bohr mag/cell
     absolute magnetization    =     1.15 Bohr mag/cell

     iteration # 15     ecut=    60.00 Ry     beta= 0.40
     Davidson diagonalization with overlap
     ethr =  4.26E-10,  avg # of iterations =  1.1

     total cpu time spent up to now is       42.5 secs

     total energy              =    -342.94578236 Ry
     estimated scf accuracy    <          1.4E-09 Ry

     total magnetization       =     0.90 Bohr mag/cell
     absolute magnetization    =     1.15 Bohr mag/cell

     iteration # 16     ecut=    60.00 Ry     beta= 0.40
     Davidson diagonalization with overlap
     ethr =  7.81E-12,  avg # of iterations =  2.0
 
     Magnetic moment per site  (integrated on atomic sphere of radius R)
     atom   1 (R=0.412)  charge= 16.7765  magn=  0.9955

     total cpu time spent up to now is       45.3 secs

     End of self-consistent calculation

     =================== HUBBARD OCCUPATIONS ===================
     ------------------------ ATOM    1 ------------------------
     Tr[ns(  1)] (up, down, total) =   4.81771  3.77069  8.58840
     Atomic magnetic moment for atom   1 =   1.04702
     SPIN  1
     eigenvalues:
       0.960  0.960  0.960  0.968  0.968
     eigenvectors (columns):
      -0.000 -0.000 -0.000  0.053 -0.999
      -0.254  0.831 -0.495 -0.000  0.000
      -0.548  0.298  0.781 -0.000  0.000
       0.000 -0.000  0.000 -0.999 -0.053
       0.797  0.470  0.380  0.000 -0.000
     occupation matrix ns (before diag.):
       0.968 -0.000 -0.000  0.000  0.000
      -0.000  0.960 -0.000  0.000  0.000
      -0.000 -0.000  0.960  0.000  0.000
       0.000  0.000  0.000  0.968 -0.000
       0.000  0.000  0.000 -0.000  0.960
     SPIN  2
     eigenvalues:
       0.625  0.625  0.625  0.948  0.948
     eigenvectors (columns):
      -0.000  0.000 -0.000  0.054 -0.999
      -0.263  0.874 -0.409 -0.000  0.000
      -0.530  0.223  0.818 -0.000 -0.000
       0.000 -0.000  0.000 -0.999 -0.054
       0.806  0.432  0.405  0.000 -0.000
     occupation matrix ns (before diag.):
       0.948 -0.000 -0.000  0.000  0.000
      -0.000  0.625 -0.000  0.000  0.000
      -0.000 -0.000  0.625  0.000  0.000
       0.000  0.000  0.000  0.948 -0.000
       0.000  0.000  0.000 -0.000  0.625

     Number of occupied Hubbard levels =    8.5884

     Number of k-points >= 100: set verbosity='high' to print the bands.

     the Fermi energy is    17.4641 ev

!    total energy              =    -342.94578236 Ry
     estimated scf accuracy    <          1.2E-10 Ry
     smearing contrib. (-TS)   =      -0.00011768 Ry
     internal energy E=F+TS    =    -342.94566468 Ry

     The total energy is F=E-TS. E is the sum of the following terms:
     one-electron contribution =    -193.46448976 Ry
     hartree contribution      =     109.01719193 Ry
     xc contribution           =     -35.72893689 Ry
     ewald contribution        =    -223.06761238 Ry
     DFT-D3 Dispersion         =      -0.02508346 Ry
     Hubbard energy            =       0.32326587 Ry

     total magnetization       =     0.90 Bohr mag/cell
     absolute magnetization    =     1.15 Bohr mag/cell

     convergence has been achieved in  16 iterations
     force_hub    :      4.52s CPU      4.52s WALL (       1 calls)
     dndtau       :      3.64s CPU      3.64s WALL (     870 calls)
     dprojdtau    :      0.51s CPU      0.51s WALL (     870 calls)
     calc_doverla :      1.85s CPU      1.86s WALL (     870 calls)
     matel_dSdtau :      2.51s CPU      2.51s WALL (    1740 calls)

     Forces acting on atoms (cartesian axes, Ry/au):

     atom    1 type  1   force =     0.00000000    0.00000000    0.00000000

     Total force =     0.000000     Total SCF correction =     0.000000


     Computing stress (Cartesian axis) and pressure

     stres_hub    :     12.78s CPU     12.72s WALL (       1 calls)
     dprojdepsilo :     11.27s CPU     11.22s WALL (    2610 calls)
     dprojdeps1   :      0.27s CPU      0.27s WALL (    2610 calls)
     dprojdeps2   :      5.60s CPU      5.58s WALL (    2610 calls)
     dprojdeps3   :      5.38s CPU      5.36s WALL (    2610 calls)
          total   stress  (Ry/bohr**3)                   (kbar)     P=       86.81
   0.00059014   0.00000000   0.00000000           86.81        0.00        0.00
   0.00000000   0.00059014   0.00000000            0.00       86.81        0.00
   0.00000000   0.00000000   0.00059014            0.00        0.00       86.81


     Writing all to output data dir ./out/ni.save/ :
     XML data file, charge density, pseudopotentials, collected wavefunctions
 
     init_run     :      1.87s CPU      2.19s WALL (       1 calls)
     electrons    :     42.72s CPU     42.96s WALL (       1 calls)
     forces       :      5.49s CPU      5.49s WALL (       1 calls)
     force_dftd3  :      0.34s CPU      0.35s WALL (       1 calls)
     stress       :     15.67s CPU     15.58s WALL (       1 calls)
     stres_dftd3  :      0.35s CPU      0.35s WALL (       1 calls)

     Called by init_run:
     wfcinit      :      1.56s CPU      1.73s WALL (       1 calls)
     potinit      :      0.17s CPU      0.18s WALL (       1 calls)
     hinit0       :      0.11s CPU      0.17s WALL (       1 calls)

     Called by electrons:
     c_bands      :     38.62s CPU     38.80s WALL (      16 calls)
     sum_band     :      3.73s CPU      3.77s WALL (      16 calls)
     v_of_rho     :      0.03s CPU      0.03s WALL (      17 calls)
     newd         :      0.08s CPU      0.13s WALL (      17 calls)
     mix_rho      :      0.05s CPU      0.06s WALL (      16 calls)
     energy_dftd3 :      0.22s CPU      0.23s WALL (       1 calls)

     Called by c_bands:
     init_us_2    :      0.88s CPU      0.88s WALL (   11020 calls)
     cegterg      :     37.44s CPU     37.63s WALL (    4640 calls)

     Called by *egterg:
     cdiaghg      :      9.58s CPU     10.18s WALL (   14530 calls)
                                       10.14s GPU  (   14530 calls)
     h_psi        :     15.86s CPU     16.01s WALL (   13950 calls)
     s_psi        :      1.39s CPU      1.40s WALL (   15400 calls)
     g_psi        :      0.09s CPU      0.09s WALL (    9020 calls)

     Called by h_psi:
     h_psi:calbec :      0.11s CPU      0.11s WALL (   13950 calls)
     vloc_psi     :      1.69s CPU      1.77s WALL (   13950 calls)
                                        1.74s GPU  (   13950 calls)
     add_vuspsi   :      6.52s CPU      6.61s WALL (   13950 calls)
     vhpsi        :      7.27s CPU      7.31s WALL (   13950 calls)

     General routines
     calbec       :      0.47s CPU      0.58s WALL (   74590 calls)
     fft          :      0.12s CPU      0.19s WALL (     463 calls)
                                        0.09s GPU  (     429 calls)
     ffts         :      0.07s CPU      0.07s WALL (      66 calls)
                                        0.00s GPU  (      32 calls)
     fftw         :      0.24s CPU      0.92s WALL (   32540 calls)
                                        0.84s GPU  (   32540 calls)
     interpolate  :      0.17s CPU      0.17s WALL (      34 calls)
 

     Hubbard U routines
     new_ns       :      0.07s CPU      0.08s WALL (      16 calls)
     vhpsi        :      7.27s CPU      7.31s WALL (   13950 calls)
     force_hub    :      4.52s CPU      4.52s WALL (       1 calls)
     stres_hub    :     12.78s CPU     12.72s WALL (       1 calls)
 
     PWSCF        :   1m 5.86s CPU   1m 6.39s WALL

 
   This run was terminated on:   2: 7:30  28May2026            

=------------------------------------------------------------------------------=
   JOB DONE.
=------------------------------------------------------------------------------=
