
     Program PWSCF v.7.5 starts on 28May2026 at  2:18:22 

     This program is part of the open-source Quantum ESPRESSO suite
     for quantum simulation of materials; please cite
         "P. Giannozzi et al., J. Phys.:Condens. Matter 21 395502 (2009);
         "P. Giannozzi et al., J. Phys.:Condens. Matter 29 465901 (2017);
         "P. Giannozzi et al., J. Chem. Phys. 152 154105 (2020);
          URL http://www.quantum-espresso.org", 
     in publications or presentations arising from this work. More details at
     http://www.quantum-espresso.org/quote

     Serial multi-threaded version, running on    1 processor cores
     28204 MiB available memory on the printing compute node when the environment starts
 
     Reading input from inputs/h2.in

     Current dimensions of program PWSCF are:
     Max number of different atomic species (ntypx) = 10
     Max number of k-points (npk) =  40000
     Max angular momentum in pseudopotentials (lmaxx) =  4
     Message from routine setup:
     using ibrav=0 with symmetry is DISCOURAGED, use correct ibrav instead
 
 
     G-vector sticks info
     --------------------
     sticks:   dense  smooth     PW     G-vecs:    dense   smooth      PW
     Sum       15273    7645   1901              1420755   502479   62669
 
     Using Slab Decomposition
 


     bravais-lattice index     =            0
     lattice parameter (alat)  =      20.0000  a.u.
     unit-cell volume          =    7999.9904 (a.u.)^3
     number of atoms/cell      =            2
     number of atomic types    =            1
     number of electrons       =         2.00
     number of Kohn-Sham states=            1
     kinetic-energy cutoff     =      60.0000  Ry
     charge density cutoff     =     480.0000  Ry
     scf convergence threshold =      1.0E-09
     mixing beta               =       0.7000
     number of iterations used =            8  plain     mixing
     energy convergence thresh.=      1.0E-05
     force convergence thresh. =      1.0E-04
     Exchange-correlation= PBE
                           (   1   4   3   4   0   0   0)
     nstep                     =           80


     GPU acceleration is ACTIVE.  1 visible GPUs per MPI rank


     celldm(1)=  19.999992  celldm(2)=   0.000000  celldm(3)=   0.000000
     celldm(4)=   0.000000  celldm(5)=   0.000000  celldm(6)=   0.000000

     crystal axes: (cart. coord. in units of alat)
               a(1) = (   1.000000   0.000000   0.000000 )  
               a(2) = (   0.000000   1.000000   0.000000 )  
               a(3) = (   0.000000   0.000000   1.000000 )  

     reciprocal axes: (cart. coord. in units 2 pi/alat)
               b(1) = (  1.000000  0.000000  0.000000 )  
               b(2) = (  0.000000  1.000000  0.000000 )  
               b(3) = (  0.000000  0.000000  1.000000 )  


     PseudoPot. # 1 for H  read from file:
     /home/x/Workspace/espresso/pseudo/H.pbe-rrkjus_psl.1.0.0.UPF
     MD5 check sum: f52b6d4d1c606e5624b1dc7b2218f220
     Pseudo is Ultrasoft, Zval =  1.0
     Generated using "atomic" code by A. Dal Corso  v.5.1
     Using radial grid of  929 points,  2 beta functions with: 
                l(1) =   0
                l(2) =   0
     Q(r) pseudized with 0 coefficients 


     atomic species   valence    mass     pseudopotential
     H                 1.00     1.00794     H ( 1.00)

     16 Sym. Ops., with inversion, found



   Cartesian axes

     site n.     atom                  positions (alat units)
         1        H      tau(   1) = (   0.4649739   0.5000000   0.5000000  )
         2        H      tau(   2) = (   0.5350261   0.5000000   0.5000000  )

     --------------------------------------------
     DFT-D3 Dispersion Correction (3-body terms):
     --------------------------------------------
       Reference C6 values for interpolation: 

         atom   Coordination number   C6
         H          0.912             6.05
         H          0.000            15.18

       Values used:

         atom   Coordination number  R0_AB[au]  C6      C8
         H          0.918            2.062      6.28     75.95
         H          0.918            2.062      6.28     75.95

         Molecular C6 ( Ry / a.u.^6 ) =        25.13


     number of k points=     1
                       cart. coord. in units 2pi/alat
        k(    1) = (   0.0000000   0.0000000   0.0000000), wk =   2.0000000

     Dense  grid:  1420755 G-vectors     FFT dimensions: ( 144, 144, 144)

     Smooth grid:   502479 G-vectors     FFT dimensions: ( 100, 100, 100)

     Estimated max dynamical RAM per process >    1021.25 MB

     Initial potential from superposition of free atoms

     starting charge       2.0000, renormalised to       2.0000

     negative rho (up, down):  9.973E-06 0.000E+00
     Starting wfcs are    2 randomized atomic wfcs

     total cpu time spent up to now is        2.2 secs

     Self-consistent Calculation

     iteration #  1     ecut=    60.00 Ry     beta= 0.70
     Davidson diagonalization with overlap
     ethr =  1.00E-02,  avg # of iterations =  2.0

     negative rho (up, down):  2.348E-05 0.000E+00

     total cpu time spent up to now is        2.6 secs

     total energy              =      -2.32545958 Ry
     estimated scf accuracy    <       0.11707563 Ry

     iteration #  2     ecut=    60.00 Ry     beta= 0.70
     Davidson diagonalization with overlap
     ethr =  5.85E-03,  avg # of iterations =  1.0

     negative rho (up, down):  3.329E-05 0.000E+00

     total cpu time spent up to now is        2.8 secs

     total energy              =      -2.33296132 Ry
     estimated scf accuracy    <       0.00136571 Ry

     iteration #  3     ecut=    60.00 Ry     beta= 0.70
     Davidson diagonalization with overlap
     ethr =  6.83E-05,  avg # of iterations =  2.0

     negative rho (up, down):  3.645E-05 0.000E+00

     total cpu time spent up to now is        3.1 secs

     total energy              =      -2.33330098 Ry
     estimated scf accuracy    <       0.00001521 Ry

     iteration #  4     ecut=    60.00 Ry     beta= 0.70
     Davidson diagonalization with overlap
     ethr =  7.60E-07,  avg # of iterations =  1.0

     negative rho (up, down):  3.704E-05 0.000E+00

     total cpu time spent up to now is        3.4 secs

     total energy              =      -2.33330222 Ry
     estimated scf accuracy    <       0.00000052 Ry

     iteration #  5     ecut=    60.00 Ry     beta= 0.70
     Davidson diagonalization with overlap
     ethr =  2.59E-08,  avg # of iterations =  1.0

     negative rho (up, down):  3.705E-05 0.000E+00

     total cpu time spent up to now is        3.6 secs

     total energy              =      -2.33330226 Ry
     estimated scf accuracy    <          9.2E-09 Ry

     iteration #  6     ecut=    60.00 Ry     beta= 0.70
     Davidson diagonalization with overlap
     ethr =  4.59E-10,  avg # of iterations =  2.0

     negative rho (up, down):  3.703E-05 0.000E+00

     total cpu time spent up to now is        3.9 secs

     End of self-consistent calculation

          k = 0.0000 0.0000 0.0000 ( 62669 PWs)   bands (ev):

   -10.3511

     highest occupied level (ev):   -10.3511

!    total energy              =      -2.33330226 Ry
     estimated scf accuracy    <          1.8E-10 Ry

     The total energy is the sum of the following terms:
     one-electron contribution =      -3.87792011 Ry
     hartree contribution      =       2.06447099 Ry
     xc contribution           =      -1.38075176 Ry
     ewald contribution        =       0.86108354 Ry
     DFT-D3 Dispersion         =      -0.00018492 Ry

     convergence has been achieved in   6 iterations

     Forces acting on atoms (cartesian axes, Ry/au):

     atom    1 type  1   force =    -0.01240856    0.00000000    0.00000000
     atom    2 type  1   force =     0.01240856    0.00000000    0.00000000

     Total force =     0.017548     Total SCF correction =     0.000004


     Computing stress (Cartesian axis) and pressure

          total   stress  (Ry/bohr**3)                   (kbar)     P=        0.10
   0.00000216   0.00000000   0.00000000            0.32        0.00        0.00
   0.00000000  -0.00000001   0.00000000            0.00       -0.00        0.00
   0.00000000   0.00000000  -0.00000001            0.00        0.00       -0.00


     BFGS Geometry Optimization
     Energy error            =      3.1E-04 Ry
     Gradient error          =      1.2E-02 Ry/Bohr

     number of scf cycles    =   1
     number of bfgs steps    =   0

     energy             new  =      -2.3333022585 Ry

     new trust radius        =       0.0124085563 bohr
     new conv_thr            =       0.0000000010 Ry


ATOMIC_POSITIONS (angstrom)
H                4.9145036748        5.2917700000        5.2917700000
H                5.6690363252        5.2917700000        5.2917700000



     Writing config-only to output data dir ./outdir/h2.save/ :
     XML data file
     NEW-OLD atomic charge density approx. for the potential

     negative rho (up, down):  3.648E-05 0.000E+00

     total cpu time spent up to now is        4.1 secs

     Self-consistent Calculation

     iteration #  1     ecut=    60.00 Ry     beta= 0.70
     Davidson diagonalization with overlap
     ethr =  1.00E-06,  avg # of iterations =  3.0

     negative rho (up, down):  3.619E-05 0.000E+00

     total cpu time spent up to now is        4.6 secs

     total energy              =      -2.33338107 Ry
     estimated scf accuracy    <       0.00005034 Ry

     iteration #  2     ecut=    60.00 Ry     beta= 0.70
     Davidson diagonalization with overlap
     ethr =  2.52E-06,  avg # of iterations =  1.0

     negative rho (up, down):  3.616E-05 0.000E+00

     total cpu time spent up to now is        4.8 secs

     total energy              =      -2.33338536 Ry
     estimated scf accuracy    <       0.00000066 Ry

     iteration #  3     ecut=    60.00 Ry     beta= 0.70
     Davidson diagonalization with overlap
     ethr =  3.32E-08,  avg # of iterations =  2.0

     negative rho (up, down):  3.625E-05 0.000E+00

     total cpu time spent up to now is        5.1 secs

     total energy              =      -2.33338548 Ry
     estimated scf accuracy    <       0.00000003 Ry

     iteration #  4     ecut=    60.00 Ry     beta= 0.70
     Davidson diagonalization with overlap
     ethr =  1.42E-09,  avg # of iterations =  1.0

     negative rho (up, down):  3.626E-05 0.000E+00

     total cpu time spent up to now is        5.3 secs

     End of self-consistent calculation

          k = 0.0000 0.0000 0.0000 ( 62669 PWs)   bands (ev):

   -10.2877

     highest occupied level (ev):   -10.2877

!    total energy              =      -2.33338548 Ry
     estimated scf accuracy    <          5.2E-11 Ry

     The total energy is the sum of the following terms:
     one-electron contribution =      -3.84373086 Ry
     hartree contribution      =       2.04672315 Ry
     xc contribution           =      -1.37246641 Ry
     ewald contribution        =       0.83627503 Ry
     DFT-D3 Dispersion         =      -0.00018638 Ry

     convergence has been achieved in   4 iterations

     Forces acting on atoms (cartesian axes, Ry/au):

     atom    1 type  1   force =     0.00546289    0.00000000    0.00000000
     atom    2 type  1   force =    -0.00546289    0.00000000    0.00000000

     Total force =     0.007726     Total SCF correction =     0.000002


     Computing stress (Cartesian axis) and pressure

          total   stress  (Ry/bohr**3)                   (kbar)     P=       -0.05
  -0.00000098   0.00000000   0.00000000           -0.14        0.00        0.00
   0.00000000  -0.00000001   0.00000000            0.00       -0.00        0.00
   0.00000000   0.00000000  -0.00000001            0.00        0.00       -0.00

     Energy error            =      8.3E-05 Ry
     Gradient error          =      5.5E-03 Ry/Bohr

     number of scf cycles    =   2
     number of bfgs steps    =   1

     energy             old  =      -2.3333022585 Ry
     energy             new  =      -2.3333854806 Ry

     CASE: energy            _new < energy            _old

     new trust radius        =       0.0037930124 bohr
     new conv_thr            =            8.3E-11 Ry


ATOMIC_POSITIONS (angstrom)
H                4.9165108505        5.2917700000        5.2917700000
H                5.6670291495        5.2917700000        5.2917700000



     Writing config-only to output data dir ./outdir/h2.save/ :
     XML data file
     NEW-OLD atomic charge density approx. for the potential

     negative rho (up, down):  3.638E-05 0.000E+00

     total cpu time spent up to now is        5.6 secs

     Self-consistent Calculation

     iteration #  1     ecut=    60.00 Ry     beta= 0.70
     Davidson diagonalization with overlap
     ethr =  1.00E-06,  avg # of iterations =  2.0

     negative rho (up, down):  3.645E-05 0.000E+00

     total cpu time spent up to now is        5.9 secs

     total energy              =      -2.33340653 Ry
     estimated scf accuracy    <       0.00000436 Ry

     iteration #  2     ecut=    60.00 Ry     beta= 0.70
     Davidson diagonalization with overlap
     ethr =  2.18E-07,  avg # of iterations =  1.0

     negative rho (up, down):  3.649E-05 0.000E+00

     total cpu time spent up to now is        6.1 secs

     total energy              =      -2.33340682 Ry
     estimated scf accuracy    <       0.00000010 Ry

     iteration #  3     ecut=    60.00 Ry     beta= 0.70
     Davidson diagonalization with overlap
     ethr =  5.08E-09,  avg # of iterations =  2.0

     negative rho (up, down):  3.649E-05 0.000E+00

     total cpu time spent up to now is        6.5 secs

     total energy              =      -2.33340684 Ry
     estimated scf accuracy    <          3.9E-09 Ry

     iteration #  4     ecut=    60.00 Ry     beta= 0.70
     Davidson diagonalization with overlap
     ethr =  1.94E-10,  avg # of iterations =  2.0

     negative rho (up, down):  3.649E-05 0.000E+00

     total cpu time spent up to now is        6.8 secs

     total energy              =      -2.33340685 Ry
     estimated scf accuracy    <          4.4E-10 Ry

     iteration #  5     ecut=    60.00 Ry     beta= 0.70
     Davidson diagonalization with overlap
     ethr =  2.18E-11,  avg # of iterations =  1.0

     negative rho (up, down):  3.649E-05 0.000E+00

     total cpu time spent up to now is        7.0 secs

     End of self-consistent calculation

          k = 0.0000 0.0000 0.0000 ( 62669 PWs)   bands (ev):

   -10.3070

     highest occupied level (ev):   -10.3070

!    total energy              =      -2.33340685 Ry
     estimated scf accuracy    <          5.4E-13 Ry

     The total energy is the sum of the following terms:
     one-electron contribution =      -3.85412410 Ry
     hartree contribution      =       2.05212143 Ry
     xc contribution           =      -1.37498438 Ry
     ewald contribution        =       0.84376608 Ry
     DFT-D3 Dispersion         =      -0.00018587 Ry

     convergence has been achieved in   5 iterations

     Forces acting on atoms (cartesian axes, Ry/au):

     atom    1 type  1   force =     0.00016077    0.00000000    0.00000000
     atom    2 type  1   force =    -0.00016077    0.00000000    0.00000000

     Total force =     0.000227     Total SCF correction =     0.000000


     Computing stress (Cartesian axis) and pressure

          total   stress  (Ry/bohr**3)                   (kbar)     P=       -0.00
  -0.00000004   0.00000000   0.00000000           -0.01        0.00        0.00
   0.00000000  -0.00000001   0.00000000            0.00       -0.00        0.00
   0.00000000   0.00000000  -0.00000001            0.00        0.00       -0.00

     Energy error            =      2.1E-05 Ry
     Gradient error          =      1.6E-04 Ry/Bohr

     number of scf cycles    =   3
     number of bfgs steps    =   2

     energy             old  =      -2.3333854806 Ry
     energy             new  =      -2.3334068453 Ry

     CASE: energy            _new < energy            _old

     new trust radius        =       0.0001150143 bohr
     new conv_thr            =            1.6E-11 Ry


ATOMIC_POSITIONS (angstrom)
H                4.9165717135        5.2917700000        5.2917700000
H                5.6669682865        5.2917700000        5.2917700000



     Writing config-only to output data dir ./outdir/h2.save/ :
     XML data file
     NEW-OLD atomic charge density approx. for the potential

     negative rho (up, down):  3.649E-05 0.000E+00

     total cpu time spent up to now is        7.2 secs

     Self-consistent Calculation

     iteration #  1     ecut=    60.00 Ry     beta= 0.70
     Davidson diagonalization with overlap
     ethr =  1.00E-06,  avg # of iterations =  1.0

     Threshold (ethr) on eigenvalues was too large:
     Diagonalizing with lowered threshold

     Davidson diagonalization with overlap
     ethr =  1.44E-10,  avg # of iterations =  2.0

     negative rho (up, down):  3.649E-05 0.000E+00

     total cpu time spent up to now is        7.7 secs

     total energy              =      -2.33340686 Ry
     estimated scf accuracy    <          4.2E-09 Ry

     iteration #  2     ecut=    60.00 Ry     beta= 0.70
     Davidson diagonalization with overlap
     ethr =  2.12E-10,  avg # of iterations =  1.0

     negative rho (up, down):  3.649E-05 0.000E+00

     total cpu time spent up to now is        8.0 secs

     total energy              =      -2.33340686 Ry
     estimated scf accuracy    <          5.6E-11 Ry

     iteration #  3     ecut=    60.00 Ry     beta= 0.70
     Davidson diagonalization with overlap
     ethr =  2.81E-12,  avg # of iterations =  2.0

     negative rho (up, down):  3.649E-05 0.000E+00

     total cpu time spent up to now is        8.3 secs

     End of self-consistent calculation

          k = 0.0000 0.0000 0.0000 ( 62669 PWs)   bands (ev):

   -10.3076

     highest occupied level (ev):   -10.3076

!    total energy              =      -2.33340686 Ry
     estimated scf accuracy    <          2.3E-12 Ry

     The total energy is the sum of the following terms:
     one-electron contribution =      -3.85443959 Ry
     hartree contribution      =       2.05228459 Ry
     xc contribution           =      -1.37506049 Ry
     ewald contribution        =       0.84399448 Ry
     DFT-D3 Dispersion         =      -0.00018586 Ry

     convergence has been achieved in   3 iterations

     Forces acting on atoms (cartesian axes, Ry/au):

     atom    1 type  1   force =    -0.00000262    0.00000000    0.00000000
     atom    2 type  1   force =     0.00000262    0.00000000    0.00000000

     Total force =     0.000004     Total SCF correction =     0.000000


     Computing stress (Cartesian axis) and pressure

          total   stress  (Ry/bohr**3)                   (kbar)     P=       -0.00
  -0.00000001   0.00000000   0.00000000           -0.00        0.00        0.00
   0.00000000  -0.00000001   0.00000000            0.00       -0.00        0.00
   0.00000000   0.00000000  -0.00000001            0.00        0.00       -0.00

     Energy error            =      1.6E-08 Ry
     Gradient error          =      2.6E-06 Ry/Bohr

     bfgs converged in   4 scf cycles and   3 bfgs steps
     (criteria: energy <  1.0E-05 Ry, force <  1.0E-04 Ry/Bohr)

     End of BFGS Geometry Optimization

     Final energy             =      -2.3334068610 Ry

     File ./outdir/h2.bfgs deleted, as requested
Begin final coordinates

ATOMIC_POSITIONS (angstrom)
H                4.9165717135        5.2917700000        5.2917700000
H                5.6669682865        5.2917700000        5.2917700000
End final coordinates



     Writing all to output data dir ./outdir/h2.save/ :
     XML data file, charge density, pseudopotentials, collected wavefunctions
 
     init_run     :      1.73s CPU      2.14s WALL (       1 calls)
     electrons    :      5.47s CPU      5.63s WALL (       4 calls)
     update_pot   :      0.11s CPU      0.11s WALL (       3 calls)
     forces       :      0.20s CPU      0.20s WALL (       4 calls)
     force_dftd3  :      0.00s CPU      0.00s WALL (       4 calls)
     stress       :      0.15s CPU      0.16s WALL (       4 calls)
     stres_dftd3  :      0.00s CPU      0.00s WALL (       4 calls)

     Called by init_run:
     wfcinit      :      0.11s CPU      0.22s WALL (       1 calls)
     potinit      :      1.10s CPU      1.17s WALL (       1 calls)
     hinit0       :      0.11s CPU      0.15s WALL (       1 calls)

     Called by electrons:
     c_bands      :      3.11s CPU      3.11s WALL (      19 calls)
     sum_band     :      0.75s CPU      0.76s WALL (      19 calls)
     v_of_rho     :      0.29s CPU      0.30s WALL (      22 calls)
     newd         :      0.18s CPU      0.22s WALL (      22 calls)
     mix_rho      :      0.30s CPU      0.35s WALL (      19 calls)
     energy_dftd3 :      0.00s CPU      0.00s WALL (       4 calls)

     Called by c_bands:
     init_us_2    :      0.01s CPU      0.01s WALL (      43 calls)
     cegterg      :      3.10s CPU      3.10s WALL (      19 calls)

     Called by *egterg:
     cdiaghg      :      0.03s CPU      0.04s WALL (      45 calls)
                                        0.04s GPU  (      45 calls)
     h_psi        :      0.11s CPU      0.21s WALL (      50 calls)
     s_psi        :      0.00s CPU      0.00s WALL (      50 calls)
     g_psi        :      0.00s CPU      0.00s WALL (      30 calls)

     Called by h_psi:
     h_psi:calbec :      0.04s CPU      0.13s WALL (      50 calls)
     vloc_psi     :      0.06s CPU      0.07s WALL (      50 calls)
                                        0.07s GPU  (      50 calls)
     add_vuspsi   :      0.00s CPU      0.00s WALL (      50 calls)

     General routines
     calbec       :      0.04s CPU      0.14s WALL (     113 calls)
     fft          :      1.32s CPU      1.44s WALL (     314 calls)
                                        0.16s GPU  (     292 calls)
     ffts         :      0.31s CPU      0.32s WALL (      41 calls)
                                        0.00s GPU  (      19 calls)
     fftw         :      0.04s CPU      0.06s WALL (     119 calls)
                                        0.06s GPU  (     119 calls)
     interpolate  :      1.69s CPU      1.74s WALL (      22 calls)
 
 
     PWSCF        :      7.84s CPU      8.47s WALL

 
   This run was terminated on:   2:18:30  28May2026            

=------------------------------------------------------------------------------=
   JOB DONE.
=------------------------------------------------------------------------------=
