
     Program PWSCF v.7.5 starts on 28May2026 at  2:17:29 

     This program is part of the open-source Quantum ESPRESSO suite
     for quantum simulation of materials; please cite
         "P. Giannozzi et al., J. Phys.:Condens. Matter 21 395502 (2009);
         "P. Giannozzi et al., J. Phys.:Condens. Matter 29 465901 (2017);
         "P. Giannozzi et al., J. Chem. Phys. 152 154105 (2020);
          URL http://www.quantum-espresso.org", 
     in publications or presentations arising from this work. More details at
     http://www.quantum-espresso.org/quote

     Serial multi-threaded version, running on    1 processor cores
     28387 MiB available memory on the printing compute node when the environment starts
 
     Reading input from inputs/mg.in

     Current dimensions of program PWSCF are:
     Max number of different atomic species (ntypx) = 10
     Max number of k-points (npk) =  40000
     Max angular momentum in pseudopotentials (lmaxx) =  4
     file Mg.pbe-n-kjpaw_psl.0.3.0.UPF: wavefunction(s)  3S renormalized
     Message from routine setup:
     using ibrav=0 with symmetry is DISCOURAGED, use correct ibrav instead
 
 
     G-vector sticks info
     --------------------
     sticks:   dense  smooth     PW     G-vecs:    dense   smooth      PW
     Sum        1213     595    187                55365    19579    3285
 
     Using Slab Decomposition
 


     bravais-lattice index     =            0
     lattice parameter (alat)  =       6.0471  a.u.
     unit-cell volume          =     311.7920 (a.u.)^3
     number of atoms/cell      =            2
     number of atomic types    =            1
     number of electrons       =         4.00
     number of Kohn-Sham states=            6
     kinetic-energy cutoff     =      60.0000  Ry
     charge density cutoff     =     480.0000  Ry
     scf convergence threshold =      1.0E-09
     mixing beta               =       0.4000
     number of iterations used =            8  plain     mixing
     energy convergence thresh.=      1.0E-05
     force convergence thresh. =      1.0E-04
     press convergence thresh. =      5.0E-01
     Exchange-correlation= SLA  PW   PBX  PBC
                           (   1   4   3   4   0   0   0)
     nstep                     =           80


     GPU acceleration is ACTIVE.  1 visible GPUs per MPI rank


     celldm(1)=   6.047124  celldm(2)=   0.000000  celldm(3)=   0.000000
     celldm(4)=   0.000000  celldm(5)=   0.000000  celldm(6)=   0.000000

     crystal axes: (cart. coord. in units of alat)
               a(1) = (   1.000000   0.000000   0.000000 )  
               a(2) = (  -0.500000   0.866025   0.000000 )  
               a(3) = (   0.000000   0.000000   1.628125 )  

     reciprocal axes: (cart. coord. in units 2 pi/alat)
               b(1) = (  1.000000  0.577350 -0.000000 )  
               b(2) = (  0.000000  1.154701  0.000000 )  
               b(3) = (  0.000000 -0.000000  0.614203 )  


     PseudoPot. # 1 for Mg read from file:
     /home/x/Workspace/espresso/pseudo/Mg.pbe-n-kjpaw_psl.0.3.0.UPF
     MD5 check sum: 24ecedc7f3e3cbe212e682f4413594e4
     Pseudo is Projector augmented-wave + core cor, Zval =  2.0
     Generated using "atomic" code by A. Dal Corso  v.5.0.99 svn rev. 10869
     Shape of augmentation charge: PSQ
     Using radial grid of 1129 points,  4 beta functions with: 
                l(1) =   0
                l(2) =   0
                l(3) =   1
                l(4) =   1
     Q(r) pseudized with 0 coefficients 


     atomic species   valence    mass     pseudopotential
     Mg                2.00    24.30500     Mg( 1.00)

     24 Sym. Ops., with inversion, found (12 have fractional translation)



   Cartesian axes

     site n.     atom                  positions (alat units)
         1        Mg     tau(   1) = (   0.0000000   0.5773503   0.4070313  )
         2        Mg     tau(   2) = (   0.5000000   0.2886751   1.2210938  )

     --------------------------------------------
     DFT-D3 Dispersion Correction (3-body terms):
     --------------------------------------------
       Reference C6 values for interpolation: 

         atom   Coordination number   C6
         Mg         0.000          1366.75
         Mg         0.963           902.54
         Mg         1.950           351.12

       Values used:

         atom   Coordination number  R0_AB[au]  C6      C8
         Mg         8.125            3.292    351.12  31436.69
         Mg         8.125            3.292    351.12  31436.69

         Molecular C6 ( Ry / a.u.^6 ) =      1404.49


     number of k points=    95  Marzari-Vanderbilt smearing, width (Ry)=  0.0100
                       cart. coord. in units 2pi/alat
        k(    1) = (   0.0000000   0.0000000   0.0000000), wk =   0.0017361
        k(    2) = (   0.0000000   0.0000000   0.0767754), wk =   0.0034722
        k(    3) = (   0.0000000   0.0000000   0.1535509), wk =   0.0034722
        k(    4) = (   0.0000000   0.0000000   0.2303263), wk =   0.0034722
        k(    5) = (   0.0000000   0.0000000  -0.3071017), wk =   0.0017361
        k(    6) = (   0.0000000   0.0962250   0.0000000), wk =   0.0104167
        k(    7) = (   0.0000000   0.0962250   0.0767754), wk =   0.0208333
        k(    8) = (   0.0000000   0.0962250   0.1535509), wk =   0.0208333
        k(    9) = (   0.0000000   0.0962250   0.2303263), wk =   0.0208333
        k(   10) = (   0.0000000   0.0962250  -0.3071017), wk =   0.0104167
        k(   11) = (   0.0000000   0.1924501   0.0000000), wk =   0.0104167
        k(   12) = (   0.0000000   0.1924501   0.0767754), wk =   0.0208333
        k(   13) = (   0.0000000   0.1924501   0.1535509), wk =   0.0208333
        k(   14) = (   0.0000000   0.1924501   0.2303263), wk =   0.0208333
        k(   15) = (   0.0000000   0.1924501  -0.3071017), wk =   0.0104167
        k(   16) = (   0.0000000   0.2886751   0.0000000), wk =   0.0104167
        k(   17) = (   0.0000000   0.2886751   0.0767754), wk =   0.0208333
        k(   18) = (   0.0000000   0.2886751   0.1535509), wk =   0.0208333
        k(   19) = (   0.0000000   0.2886751   0.2303263), wk =   0.0208333
        k(   20) = (   0.0000000   0.2886751  -0.3071017), wk =   0.0104167
        k(   21) = (   0.0000000   0.3849002   0.0000000), wk =   0.0104167
        k(   22) = (   0.0000000   0.3849002   0.0767754), wk =   0.0208333
        k(   23) = (   0.0000000   0.3849002   0.1535509), wk =   0.0208333
        k(   24) = (   0.0000000   0.3849002   0.2303263), wk =   0.0208333
        k(   25) = (   0.0000000   0.3849002  -0.3071017), wk =   0.0104167
        k(   26) = (   0.0000000   0.4811252   0.0000000), wk =   0.0104167
        k(   27) = (   0.0000000   0.4811252   0.0767754), wk =   0.0208333
        k(   28) = (   0.0000000   0.4811252   0.1535509), wk =   0.0208333
        k(   29) = (   0.0000000   0.4811252   0.2303263), wk =   0.0208333
        k(   30) = (   0.0000000   0.4811252  -0.3071017), wk =   0.0104167
        k(   31) = (   0.0000000  -0.5773503   0.0000000), wk =   0.0052083
        k(   32) = (   0.0000000  -0.5773503   0.0767754), wk =   0.0104167
        k(   33) = (   0.0000000  -0.5773503   0.1535509), wk =   0.0104167
        k(   34) = (   0.0000000  -0.5773503   0.2303263), wk =   0.0104167
        k(   35) = (   0.0000000  -0.5773503  -0.3071017), wk =   0.0052083
        k(   36) = (   0.0833333   0.1443376   0.0000000), wk =   0.0104167
        k(   37) = (   0.0833333   0.1443376   0.0767754), wk =   0.0208333
        k(   38) = (   0.0833333   0.1443376   0.1535509), wk =   0.0208333
        k(   39) = (   0.0833333   0.1443376   0.2303263), wk =   0.0208333
        k(   40) = (   0.0833333   0.1443376  -0.3071017), wk =   0.0104167
        k(   41) = (   0.0833333   0.2405626   0.0000000), wk =   0.0208333
        k(   42) = (   0.0833333   0.2405626   0.0767754), wk =   0.0416667
        k(   43) = (   0.0833333   0.2405626   0.1535509), wk =   0.0416667
        k(   44) = (   0.0833333   0.2405626   0.2303263), wk =   0.0416667
        k(   45) = (   0.0833333   0.2405626  -0.3071017), wk =   0.0208333
        k(   46) = (   0.0833333   0.3367877   0.0000000), wk =   0.0208333
        k(   47) = (   0.0833333   0.3367877   0.0767754), wk =   0.0416667
        k(   48) = (   0.0833333   0.3367877   0.1535509), wk =   0.0416667
        k(   49) = (   0.0833333   0.3367877   0.2303263), wk =   0.0416667
        k(   50) = (   0.0833333   0.3367877  -0.3071017), wk =   0.0208333
        k(   51) = (   0.0833333   0.4330127   0.0000000), wk =   0.0208333
        k(   52) = (   0.0833333   0.4330127   0.0767754), wk =   0.0416667
        k(   53) = (   0.0833333   0.4330127   0.1535509), wk =   0.0416667
        k(   54) = (   0.0833333   0.4330127   0.2303263), wk =   0.0416667
        k(   55) = (   0.0833333   0.4330127  -0.3071017), wk =   0.0208333
        k(   56) = (   0.0833333   0.5292377   0.0000000), wk =   0.0208333
        k(   57) = (   0.0833333   0.5292377   0.0767754), wk =   0.0416667
        k(   58) = (   0.0833333   0.5292377   0.1535509), wk =   0.0416667
        k(   59) = (   0.0833333   0.5292377   0.2303263), wk =   0.0416667
        k(   60) = (   0.0833333   0.5292377  -0.3071017), wk =   0.0208333
        k(   61) = (   0.1666667   0.2886751   0.0000000), wk =   0.0104167
        k(   62) = (   0.1666667   0.2886751   0.0767754), wk =   0.0208333
        k(   63) = (   0.1666667   0.2886751   0.1535509), wk =   0.0208333
        k(   64) = (   0.1666667   0.2886751   0.2303263), wk =   0.0208333
        k(   65) = (   0.1666667   0.2886751  -0.3071017), wk =   0.0104167
        k(   66) = (   0.1666667   0.3849002   0.0000000), wk =   0.0208333
        k(   67) = (   0.1666667   0.3849002   0.0767754), wk =   0.0416667
        k(   68) = (   0.1666667   0.3849002   0.1535509), wk =   0.0416667
        k(   69) = (   0.1666667   0.3849002   0.2303263), wk =   0.0416667
        k(   70) = (   0.1666667   0.3849002  -0.3071017), wk =   0.0208333
        k(   71) = (   0.1666667   0.4811252   0.0000000), wk =   0.0208333
        k(   72) = (   0.1666667   0.4811252   0.0767754), wk =   0.0416667
        k(   73) = (   0.1666667   0.4811252   0.1535509), wk =   0.0416667
        k(   74) = (   0.1666667   0.4811252   0.2303263), wk =   0.0416667
        k(   75) = (   0.1666667   0.4811252  -0.3071017), wk =   0.0208333
        k(   76) = (   0.1666667   0.5773503   0.0000000), wk =   0.0104167
        k(   77) = (   0.1666667   0.5773503   0.0767754), wk =   0.0208333
        k(   78) = (   0.1666667   0.5773503   0.1535509), wk =   0.0208333
        k(   79) = (   0.1666667   0.5773503   0.2303263), wk =   0.0208333
        k(   80) = (   0.1666667   0.5773503  -0.3071017), wk =   0.0104167
        k(   81) = (   0.2500000   0.4330127   0.0000000), wk =   0.0104167
        k(   82) = (   0.2500000   0.4330127   0.0767754), wk =   0.0208333
        k(   83) = (   0.2500000   0.4330127   0.1535509), wk =   0.0208333
        k(   84) = (   0.2500000   0.4330127   0.2303263), wk =   0.0208333
        k(   85) = (   0.2500000   0.4330127  -0.3071017), wk =   0.0104167
        k(   86) = (   0.2500000   0.5292377   0.0000000), wk =   0.0208333
        k(   87) = (   0.2500000   0.5292377   0.0767754), wk =   0.0416667
        k(   88) = (   0.2500000   0.5292377   0.1535509), wk =   0.0416667
        k(   89) = (   0.2500000   0.5292377   0.2303263), wk =   0.0416667
        k(   90) = (   0.2500000   0.5292377  -0.3071017), wk =   0.0208333
        k(   91) = (   0.3333333   0.5773503   0.0000000), wk =   0.0034722
        k(   92) = (   0.3333333   0.5773503   0.0767754), wk =   0.0069444
        k(   93) = (   0.3333333   0.5773503   0.1535509), wk =   0.0069444
        k(   94) = (   0.3333333   0.5773503   0.2303263), wk =   0.0069444
        k(   95) = (   0.3333333   0.5773503  -0.3071017), wk =   0.0034722

     Dense  grid:    55365 G-vectors     FFT dimensions: (  45,  45,  72)

     Smooth grid:    19579 G-vectors     FFT dimensions: (  30,  30,  50)

     Estimated max dynamical RAM per process >      98.11 MB

     Initial potential from superposition of free atoms

     starting charge       3.9982, renormalised to       4.0000
     Starting wfcs are    8 randomized atomic wfcs

     total cpu time spent up to now is        1.0 secs

     Self-consistent Calculation

     iteration #  1     ecut=    60.00 Ry     beta= 0.40
     Davidson diagonalization with overlap
     ethr =  1.00E-02,  avg # of iterations =  4.2

     Threshold (ethr) on eigenvalues was too large:
     Diagonalizing with lowered threshold

     Davidson diagonalization with overlap
     ethr =  1.76E-04,  avg # of iterations =  3.2

     total cpu time spent up to now is        3.0 secs

     total energy              =     -67.27256229 Ry
     estimated scf accuracy    <       0.00708484 Ry

     iteration #  2     ecut=    60.00 Ry     beta= 0.40
     Davidson diagonalization with overlap
     ethr =  1.77E-04,  avg # of iterations =  1.0

     total cpu time spent up to now is        3.3 secs

     total energy              =     -67.27261189 Ry
     estimated scf accuracy    <       0.00257997 Ry

     iteration #  3     ecut=    60.00 Ry     beta= 0.40
     Davidson diagonalization with overlap
     ethr =  6.45E-05,  avg # of iterations =  1.2

     total cpu time spent up to now is        3.6 secs

     total energy              =     -67.27266131 Ry
     estimated scf accuracy    <       0.00000118 Ry

     iteration #  4     ecut=    60.00 Ry     beta= 0.40
     Davidson diagonalization with overlap
     ethr =  2.96E-08,  avg # of iterations =  9.5

     total cpu time spent up to now is        5.4 secs

     total energy              =     -67.27290341 Ry
     estimated scf accuracy    <       0.00000228 Ry

     iteration #  5     ecut=    60.00 Ry     beta= 0.40
     Davidson diagonalization with overlap
     ethr =  2.96E-08,  avg # of iterations =  1.1

     total cpu time spent up to now is        5.7 secs

     total energy              =     -67.27289879 Ry
     estimated scf accuracy    <       0.00000144 Ry

     iteration #  6     ecut=    60.00 Ry     beta= 0.40
     Davidson diagonalization with overlap
     ethr =  2.96E-08,  avg # of iterations =  1.3

     total cpu time spent up to now is        6.1 secs

     total energy              =     -67.27289814 Ry
     estimated scf accuracy    <       0.00000019 Ry

     iteration #  7     ecut=    60.00 Ry     beta= 0.40
     Davidson diagonalization with overlap
     ethr =  4.68E-09,  avg # of iterations =  4.4

     total cpu time spent up to now is        7.3 secs

     total energy              =     -67.27289830 Ry
     estimated scf accuracy    <          3.0E-09 Ry

     iteration #  8     ecut=    60.00 Ry     beta= 0.40
     Davidson diagonalization with overlap
     ethr =  7.61E-11,  avg # of iterations =  4.2

     total cpu time spent up to now is        8.5 secs

     total energy              =     -67.27289831 Ry
     estimated scf accuracy    <          5.0E-09 Ry

     iteration #  9     ecut=    60.00 Ry     beta= 0.40
     Davidson diagonalization with overlap
     ethr =  7.61E-11,  avg # of iterations =  1.5

     total cpu time spent up to now is        9.0 secs

     End of self-consistent calculation

          k = 0.0000 0.0000 0.0000 (  2479 PWs)   bands (ev):

    -3.3482   1.8793   2.2981  14.4981  14.5858  14.5859

          k = 0.0000 0.0000 0.0768 (  2461 PWs)   bands (ev):

    -3.2610   0.8239   3.5038  14.3968  14.6453  14.6454

          k = 0.0000 0.0000 0.1536 (  2436 PWs)   bands (ev):

    -3.0000  -0.2617   5.0395  12.4816  14.8181  14.8181

          k = 0.0000 0.0000 0.2303 (  2454 PWs)   bands (ev):

    -2.5665  -1.1934   6.7207  10.4694  15.0715  15.0715

          k = 0.0000 0.0000-0.3071 (  2472 PWs)   bands (ev):

    -1.9632  -1.9632   8.5357   8.5357  15.2432  15.2432

          k = 0.0000 0.0962 0.0000 (  2465 PWs)   bands (ev):

    -3.2113   2.0041   2.4309  12.2156  13.2853  14.0873

          k = 0.0000 0.0962 0.0768 (  2452 PWs)   bands (ev):

    -3.1243   0.9540   3.6306  12.2763  13.3564  14.0202

          k = 0.0000 0.0962 0.1536 (  2448 PWs)   bands (ev):

    -2.8636  -0.1295   5.1625  12.2652  12.8641  13.5695

          k = 0.0000 0.0962 0.2303 (  2464 PWs)   bands (ev):

    -2.4308  -1.0598   6.8385  10.5563  12.9258  13.8772

          k = 0.0000 0.0962-0.3071 (  2456 PWs)   bands (ev):

    -1.8284  -1.8284   8.6447   8.6447  13.3737  13.3737

          k = 0.0000 0.1925 0.0000 (  2457 PWs)   bands (ev):

    -2.8019   2.3787   2.8242   9.6986  12.2556  12.8763

          k = 0.0000 0.1925 0.0768 (  2453 PWs)   bands (ev):

    -2.7153   1.3431   4.0070   9.7737  12.3281  12.7508

          k = 0.0000 0.1925 0.1536 (  2454 PWs)   bands (ev):

    -2.4558   0.2657   5.5247   9.9933  12.1984  12.5457

          k = 0.0000 0.1925 0.2303 (  2461 PWs)   bands (ev):

    -2.0249  -0.6601   7.1775  10.2572  10.9619  11.6486

          k = 0.0000 0.1925-0.3071 (  2464 PWs)   bands (ev):

    -1.4252  -1.4252   8.9312   8.9312  10.9866  10.9866

          k = 0.0000 0.2887 0.0000 (  2453 PWs)   bands (ev):

    -2.1238   3.0035   3.4552   7.3705  11.4560  11.5656

          k = 0.0000 0.2887 0.0768 (  2455 PWs)   bands (ev):

    -2.0378   1.9858   4.6088   7.4588  10.9169  11.5288

          k = 0.0000 0.2887 0.1536 (  2454 PWs)   bands (ev):

    -1.7802   0.9194   6.0639   7.7378  10.0257  11.7472

          k = 0.0000 0.2887 0.2303 (  2449 PWs)   bands (ev):

    -1.3526   0.0016   7.4681   8.3206   9.2321  11.4816

          k = 0.0000 0.2887-0.3071 (  2454 PWs)   bands (ev):

    -0.7575  -0.7575   8.3583   8.3583   9.8138   9.8138

          k = 0.0000 0.3849 0.0000 (  2453 PWs)   bands (ev):

    -1.1829   3.8789   4.1332   5.4521  10.0817  10.8860

          k = 0.0000 0.3849 0.0768 (  2451 PWs)   bands (ev):

    -1.0978   2.8619   4.9342   5.8888   8.9466  10.9589

          k = 0.0000 0.3849 0.1536 (  2461 PWs)   bands (ev):

    -0.8430   1.8205   5.3623   7.1275   8.0148  11.1771

          k = 0.0000 0.3849 0.2303 (  2456 PWs)   bands (ev):

    -0.4201   0.9173   5.7991   7.0634   8.7923  11.5415

          k = 0.0000 0.3849-0.3071 (  2444 PWs)   bands (ev):

     0.1681   0.1681   6.3656   6.3656  10.4379  10.4379

          k = 0.0000 0.4811 0.0000 (  2449 PWs)   bands (ev):

     0.0118   3.0743   5.0033   5.7198   8.0446   8.5202

          k = 0.0000 0.4811 0.0768 (  2442 PWs)   bands (ev):

     0.0956   3.1098   4.1711   6.6622   7.1968   9.5284

          k = 0.0000 0.4811 0.1536 (  2439 PWs)   bands (ev):

     0.3463   2.8439   3.6550   6.0735   8.2165  10.8354

          k = 0.0000 0.4811 0.2303 (  2446 PWs)   bands (ev):

     0.7616   2.0574   3.9544   5.2140   9.7412  11.1994

          k = 0.0000 0.4811-0.3071 (  2456 PWs)   bands (ev):

     1.3365   1.3365   4.5002   4.5002  11.1981  11.7090

          k = 0.0000-0.5774 0.0000 (  2436 PWs)   bands (ev):

     1.4425   1.4497   6.2149   6.5798   6.8075   7.2258

          k = 0.0000-0.5774 0.0768 (  2436 PWs)   bands (ev):

     1.5220   1.5318   5.4584   5.4882   8.0473   8.0883

          k = 0.0000-0.5774 0.1536 (  2432 PWs)   bands (ev):

     1.7579   1.7749   4.4507   4.4793   9.3648  10.7213

          k = 0.0000-0.5774 0.2303 (  2448 PWs)   bands (ev):

     2.1343   2.1591   3.5939   3.6325  10.6278  11.0852

          k = 0.0000-0.5774-0.3071 (  2440 PWs)   bands (ev):

     2.4759   2.4759   3.1258   3.1258  11.5950  11.5951

          k = 0.0833 0.1443 0.0000 (  2461 PWs)   bands (ev):

    -2.9382   2.2538   2.6941  10.8900  11.1721  15.1807

          k = 0.0833 0.1443 0.0768 (  2454 PWs)   bands (ev):

    -2.8514   1.2137   3.8824  10.9567  11.2421  14.5013

          k = 0.0833 0.1443 0.1536 (  2455 PWs)   bands (ev):

    -2.5915   0.1342   5.4056  11.1322  11.4454  12.8128

          k = 0.0833 0.1443 0.2303 (  2463 PWs)   bands (ev):

    -2.1600  -0.7931   7.0685  10.6591  11.6678  11.7403

          k = 0.0833 0.1443-0.3071 (  2466 PWs)   bands (ev):

    -1.5594  -1.5594   8.8499   8.8499  11.8785  11.8785

          k = 0.0833 0.2406 0.0000 (  2462 PWs)   bands (ev):

    -2.3944   2.7535   3.2086   8.5819  10.0553  13.5566

          k = 0.0833 0.2406 0.0768 (  2463 PWs)   bands (ev):

    -2.3081   1.7298   4.3754   8.6601  10.1164  12.3995

          k = 0.0833 0.2406 0.1536 (  2456 PWs)   bands (ev):

    -2.0498   0.6587   5.8717   8.8930  10.2636  11.4844

          k = 0.0833 0.2406 0.2303 (  2456 PWs)   bands (ev):

    -1.6209  -0.2624   7.4790   9.2687  10.1891  10.7775

          k = 0.0833 0.2406-0.3071 (  2460 PWs)   bands (ev):

    -1.0239  -1.0239   9.0651   9.0651   9.9414   9.9414

          k = 0.0833 0.3368 0.0000 (  2451 PWs)   bands (ev):

    -1.5849   3.5037   3.9206   6.4046   9.2499  11.0454

          k = 0.0833 0.3368 0.0768 (  2449 PWs)   bands (ev):

    -1.4994   2.4931   5.0302   6.5255   9.2401  10.3577

          k = 0.0833 0.3368 0.1536 (  2458 PWs)   bands (ev):

    -1.2434   1.4373   6.1971   7.0632   8.8974   9.9845

          k = 0.0833 0.3368 0.2303 (  2458 PWs)   bands (ev):

    -0.8184   0.5267   6.8593   8.0521   8.4897  10.2208

          k = 0.0833 0.3368-0.3071 (  2454 PWs)   bands (ev):

    -0.2271  -0.2271   7.4500   7.4500   9.8378   9.8379

          k = 0.0833 0.4330 0.0000 (  2438 PWs)   bands (ev):

    -0.5170   3.9496   4.5042   5.3534   8.5506   9.0450

          k = 0.0833 0.4330 0.0768 (  2444 PWs)   bands (ev):

    -0.4326   3.4146   4.3374   6.2610   7.9804   9.1069

          k = 0.0833 0.4330 0.1536 (  2452 PWs)   bands (ev):

    -0.1799   2.4442   4.5431   7.0088   7.6933   9.3903

          k = 0.0833 0.4330 0.2303 (  2448 PWs)   bands (ev):

     0.2392   1.5610   4.9386   6.1991   8.9870   9.9523

          k = 0.0833 0.4330-0.3071 (  2446 PWs)   bands (ev):

     0.8215   0.8215   5.4947   5.4947   9.8651   9.8651

          k = 0.0833 0.5292 0.0000 (  2440 PWs)   bands (ev):

     0.7984   2.3390   5.7458   6.3546   7.2995   7.5989

          k = 0.0833 0.5292 0.0768 (  2439 PWs)   bands (ev):

     0.8810   2.4137   4.8576   6.3108   7.3779   8.4684

          k = 0.0833 0.5292 0.1536 (  2435 PWs)   bands (ev):

     1.1277   2.6173   3.8788   5.3255   8.4446   9.3755

          k = 0.0833 0.5292 0.2303 (  2439 PWs)   bands (ev):

     1.5342   2.6585   3.3590   4.4634   9.1282  10.2288

          k = 0.0833 0.5292-0.3071 (  2434 PWs)   bands (ev):

     2.0852   2.0852   3.7653   3.7653   9.7336   9.7336

          k = 0.1667 0.2887 0.0000 (  2449 PWs)   bands (ev):

    -1.7193   3.3786   3.8198   7.5294   7.9382  12.1198

          k = 0.1667 0.2887 0.0768 (  2459 PWs)   bands (ev):

    -1.6337   2.3679   4.9581   7.6040   8.0251  11.4970

          k = 0.1667 0.2887 0.1536 (  2451 PWs)   bands (ev):

    -1.3773   1.3085   6.3753   7.8239   8.2868  10.5645

          k = 0.1667 0.2887 0.2303 (  2461 PWs)   bands (ev):

    -0.9516   0.3959   7.7422   8.1690   8.6737   9.6921

          k = 0.1667 0.2887-0.3071 (  2454 PWs)   bands (ev):

    -0.3593  -0.3593   8.5044   8.5044   8.9189   8.9189

          k = 0.1667 0.3849 0.0000 (  2437 PWs)   bands (ev):

    -0.7827   4.2543   4.4714   5.7541   7.1777  10.2646

          k = 0.1667 0.3849 0.0768 (  2442 PWs)   bands (ev):

    -0.6980   3.2346   5.3001   6.1043   7.2869   9.5445

          k = 0.1667 0.3849 0.1536 (  2446 PWs)   bands (ev):

    -0.4444   2.2027   5.7305   6.9691   7.6665   8.8054

          k = 0.1667 0.3849 0.2303 (  2448 PWs)   bands (ev):

    -0.0236   1.3061   6.1526   7.2006   7.8529   8.8822

          k = 0.1667 0.3849-0.3071 (  2450 PWs)   bands (ev):

     0.5614   0.5614   6.6804   6.6804   8.3277   8.3277

          k = 0.1667 0.4811 0.0000 (  2437 PWs)   bands (ev):

     0.4064   3.4517   5.3781   5.7745   6.9246   8.4129

          k = 0.1667 0.4811 0.0768 (  2432 PWs)   bands (ev):

     0.4897   3.4836   4.5285   6.4023   7.0995   8.0299

          k = 0.1667 0.4811 0.1536 (  2439 PWs)   bands (ev):

     0.7390   3.2111   4.0359   6.2764   7.0656   8.7764

          k = 0.1667 0.4811 0.2303 (  2439 PWs)   bands (ev):

     1.1516   2.4360   4.3289   5.5427   7.4241   8.6284

          k = 0.1667 0.4811-0.3071 (  2444 PWs)   bands (ev):

     1.7222   1.7222   4.8612   4.8612   7.9672   7.9672

          k = 0.1667 0.5774 0.0000 (  2444 PWs)   bands (ev):

     1.8254   1.8416   6.1016   6.5817   6.9612   7.1509

          k = 0.1667 0.5774 0.0768 (  2435 PWs)   bands (ev):

     1.9045   1.9226   5.6296   5.8647   6.6581   8.3538

          k = 0.1667 0.5774 0.1536 (  2438 PWs)   bands (ev):

     2.1392   2.1618   4.7854   4.8322   6.8973   9.1424

          k = 0.1667 0.5774 0.2303 (  2432 PWs)   bands (ev):

     2.5124   2.5380   3.9799   3.9893   7.2954   8.5246

          k = 0.1667 0.5774-0.3071 (  2428 PWs)   bands (ev):

     2.8441   2.8441   3.5131   3.5131   7.8451   7.8451

          k = 0.2500 0.4330 0.0000 (  2429 PWs)   bands (ev):

     0.2753   4.5703   4.8771   5.2541   6.4409   9.5291

          k = 0.2500 0.4330 0.0768 (  2436 PWs)   bands (ev):

     0.3588   4.0834   4.9538   5.1874   7.1472   8.9412

          k = 0.2500 0.4330 0.1536 (  2443 PWs)   bands (ev):

     0.6087   3.1790   5.1802   5.3710   7.6323   8.0346

          k = 0.2500 0.4330 0.2303 (  2451 PWs)   bands (ev):

     1.0228   2.3225   5.5365   5.7032   7.0225   7.2291

          k = 0.2500 0.4330-0.3071 (  2448 PWs)   bands (ev):

     1.5969   1.5969   5.8804   5.8804   6.7222   6.7222

          k = 0.2500 0.5292 0.0000 (  2441 PWs)   bands (ev):

     1.5776   3.1011   4.5664   6.4906   7.2738   8.0268

          k = 0.2500 0.5292 0.0768 (  2437 PWs)   bands (ev):

     1.6590   3.1730   4.5942   5.7596   7.1145   8.2096

          k = 0.2500 0.5292 0.1536 (  2434 PWs)   bands (ev):

     1.9016   3.3652   4.4323   5.1500   6.2697   7.6567

          k = 0.2500 0.5292 0.2303 (  2432 PWs)   bands (ev):

     2.3000   3.3827   4.0917   4.9811   5.8355   6.8476

          k = 0.2500 0.5292-0.3071 (  2436 PWs)   bands (ev):

     2.8353   2.8353   4.4677   4.4677   6.1874   6.1874

          k = 0.3333 0.5774 0.0000 (  2442 PWs)   bands (ev):

     2.9640   2.9880   2.9880   7.6845   7.6845   7.8544

          k = 0.3333 0.5774 0.0768 (  2436 PWs)   bands (ev):

     3.0442   3.0620   3.0620   6.8882   7.0991   7.0991

          k = 0.3333 0.5774 0.1536 (  2442 PWs)   bands (ev):

     3.2752   3.2752   3.2849   5.8530   6.2053   6.2053

          k = 0.3333 0.5774 0.2303 (  2421 PWs)   bands (ev):

     3.5808   3.5808   3.6862   4.9707   5.4546   5.4546

          k = 0.3333 0.5774-0.3071 (  2412 PWs)   bands (ev):

     3.7756   3.7756   4.2481   4.2481   5.1083   5.1084

     the Fermi energy is     3.5015 ev

!    total energy              =     -67.27289831 Ry
     total all-electron energy =      -801.381316 Ry
     estimated scf accuracy    <          4.3E-10 Ry
     smearing contrib. (-TS)   =       0.00004326 Ry
     internal energy E=F+TS    =     -67.27294157 Ry

     The total energy is F=E-TS. E is the sum of the following terms:
     one-electron contribution =       2.82882397 Ry
     hartree contribution      =       0.00741790 Ry
     xc contribution           =      -3.18339935 Ry
     ewald contribution        =      -4.29305337 Ry
     DFT-D3 Dispersion         =      -0.03913707 Ry
     one-center paw contrib.   =     -62.59359364 Ry

     convergence has been achieved in   9 iterations

     Forces acting on atoms (cartesian axes, Ry/au):

     atom    1 type  1   force =     0.00000000    0.00000000    0.00000000
     atom    2 type  1   force =     0.00000000    0.00000000    0.00000000

     Total force =     0.000000     Total SCF correction =     0.000000


     Computing stress (Cartesian axis) and pressure

          total   stress  (Ry/bohr**3)                   (kbar)     P=      -21.33
  -0.00012169   0.00000000   0.00000000          -17.90        0.00        0.00
   0.00000000  -0.00012169   0.00000000            0.00      -17.90        0.00
   0.00000000  -0.00000000  -0.00019157            0.00       -0.00      -28.18


     BFGS Geometry Optimization
     Energy error            =      5.2E-04 Ry
     Gradient error          =      0.0E+00 Ry/Bohr
     Cell gradient error     =      2.8E+01 kbar

     number of scf cycles    =   1
     number of bfgs steps    =   0

     enthalpy           new  =     -67.2728983106 Ry

     new trust radius        =       0.0169131034 bohr
     new conv_thr            =       0.0000000010 Ry

     new unit-cell volume =    308.41364 a.u.^3 (    45.70219 Ang^3 )
     density =      1.76619 g/cm^3

CELL_PARAMETERS (angstrom)
   3.190265027   0.000000000  -0.000000000
  -1.595132513   2.762850558  -0.000000000
   0.000000000   0.000000000   5.185048390

ATOMIC_POSITIONS (angstrom)
Mg              -0.0000000000        1.8419003720        1.2962620975
Mg               1.5951325134        0.9209501860        3.8887862924



     Writing config-only to output data dir ./outdir/mg.save/ :
     XML data file
     NEW-OLD atomic charge density approx. for the potential
     New effective cutoffs (rho, wfc):  484.01   60.57

     total cpu time spent up to now is        9.6 secs

     Self-consistent Calculation

     iteration #  1     ecut=    60.00 Ry     beta= 0.40
     Davidson diagonalization with overlap
     ethr =  1.00E-06,  avg # of iterations =  2.2

     Threshold (ethr) on eigenvalues was too large:
     Diagonalizing with lowered threshold

     Davidson diagonalization with overlap
     ethr =  1.53E-08,  avg # of iterations =  1.6

     total cpu time spent up to now is       10.6 secs

     total energy              =     -67.27337352 Ry
     estimated scf accuracy    <       0.00000057 Ry

     iteration #  2     ecut=    60.00 Ry     beta= 0.40
     Davidson diagonalization with overlap
     ethr =  1.42E-08,  avg # of iterations =  1.0

     total cpu time spent up to now is       10.9 secs

     total energy              =     -67.27337328 Ry
     estimated scf accuracy    <       0.00000020 Ry

     iteration #  3     ecut=    60.00 Ry     beta= 0.40
     Davidson diagonalization with overlap
     ethr =  4.99E-09,  avg # of iterations =  1.0

     total cpu time spent up to now is       11.2 secs

     End of self-consistent calculation

          k = 0.0000 0.0000 0.0000 (  2479 PWs)   bands (ev):

    -3.3280   1.9374   2.3823  14.6098  14.7154  14.7154

          k = 0.0000 0.0000 0.0771 (  2461 PWs)   bands (ev):

    -3.2400   0.8819   3.5891  14.5565  14.7746  14.7747

          k = 0.0000 0.0000 0.1543 (  2436 PWs)   bands (ev):

    -2.9764  -0.2127   5.1372  12.6376  14.9464  14.9464

          k = 0.0000 0.0000 0.2314 (  2454 PWs)   bands (ev):

    -2.5388  -1.1528   6.8322  10.6111  15.1960  15.1960

          k =-0.0000-0.0000-0.3086 (  2472 PWs)   bands (ev):

    -1.9298  -1.9298   8.6620   8.6620  15.3582  15.3582

          k =-0.0000 0.0965 0.0000 (  2465 PWs)   bands (ev):

    -3.1903   2.0628   2.5157  12.3237  13.4015  14.2054

          k =-0.0000 0.0965 0.0771 (  2452 PWs)   bands (ev):

    -3.1024   1.0127   3.7165  12.3852  13.4731  14.1457

          k =-0.0000 0.0965 0.1543 (  2448 PWs)   bands (ev):

    -2.8392  -0.0798   5.2606  12.3925  13.0024  13.6874

          k =-0.0000 0.0965 0.2314 (  2464 PWs)   bands (ev):

    -2.4023  -1.0184   6.9502  10.6970  13.0386  13.9898

          k =-0.0000 0.0965-0.3086 (  2456 PWs)   bands (ev):

    -1.7942  -1.7942   8.7710   8.7710  13.4872  13.4872

          k =-0.0000 0.1930 0.0000 (  2457 PWs)   bands (ev):

    -2.7784   2.4392   2.9107   9.7943  12.3683  12.9828

          k =-0.0000 0.1930 0.0771 (  2453 PWs)   bands (ev):

    -2.6909   1.4036   4.0944   9.8701  12.4413  12.8564

          k =-0.0000 0.1930 0.1543 (  2454 PWs)   bands (ev):

    -2.4289   0.3175   5.6237  10.0920  12.3057  12.6604

          k =-0.0000 0.1930 0.2314 (  2461 PWs)   bands (ev):

    -1.9940  -0.6165   7.2892  10.3652  11.0864  11.7634

          k =-0.0000 0.1930-0.3086 (  2464 PWs)   bands (ev):

    -1.3887  -1.3887   9.0551   9.0551  11.0927  11.0927

          k =-0.0000 0.2896 0.0000 (  2453 PWs)   bands (ev):

    -2.0961   3.0670   3.5434   7.4558  11.5659  11.6665

          k =-0.0000 0.2896 0.0771 (  2455 PWs)   bands (ev):

    -2.0093   2.0494   4.6973   7.5454  11.0196  11.6391

          k =-0.0000 0.2896 0.1543 (  2454 PWs)   bands (ev):

    -1.7493   0.9746   6.1606   7.8294  10.1249  11.8591

          k =-0.0000 0.2896 0.2314 (  2449 PWs)   bands (ev):

    -1.3177   0.0488   7.5629   8.4288   9.3271  11.6188

          k =-0.0000 0.2896-0.3086 (  2454 PWs)   bands (ev):

    -0.7171  -0.7171   8.4494   8.4494   9.9424   9.9424

          k =-0.0000 0.3861 0.0000 (  2453 PWs)   bands (ev):

    -1.1497   3.9468   4.2119   5.5399  10.1862  10.9934

          k =-0.0000 0.3861 0.0771 (  2451 PWs)   bands (ev):

    -1.0638   2.9290   5.0035   5.9885   9.0431  11.0672

          k =-0.0000 0.3861 0.1543 (  2461 PWs)   bands (ev):

    -0.8066   1.8800   5.4327   7.2376   8.1057  11.2870

          k =-0.0000 0.3861 0.2314 (  2456 PWs)   bands (ev):

    -0.3799   0.9694   5.8735   7.1494   8.9112  11.6538

          k =-0.0000 0.3861-0.3086 (  2444 PWs)   bands (ev):

     0.2136   0.2136   6.4450   6.4450  10.5658  10.5658

          k =-0.0000 0.4826 0.0000 (  2449 PWs)   bands (ev):

     0.0518   3.1301   5.0771   5.8250   8.1323   8.6277

          k =-0.0000 0.4826 0.0771 (  2442 PWs)   bands (ev):

     0.1364   3.1658   4.2472   6.7655   7.2857   9.6338

          k =-0.0000 0.4826 0.1543 (  2439 PWs)   bands (ev):

     0.3893   2.9038   3.7222   6.1568   8.3269  10.9440

          k =-0.0000 0.4826 0.2314 (  2446 PWs)   bands (ev):

     0.8082   2.1145   4.0208   5.2902   9.8592  11.3104

          k =-0.0000 0.4826-0.3086 (  2456 PWs)   bands (ev):

     1.3880   1.3880   4.5707   4.5707  11.3154  11.8233

          k = 0.0000-0.5791 0.0000 (  2436 PWs)   bands (ev):

     1.4865   1.5012   6.3002   6.6547   6.9178   7.3298

          k = 0.0000-0.5791 0.0771 (  2436 PWs)   bands (ev):

     1.5666   1.5840   5.5426   5.5686   8.1532   8.1921

          k = 0.0000-0.5791 0.1543 (  2432 PWs)   bands (ev):

     1.8044   1.8290   4.5230   4.5577   9.4702   9.6340

          k = 0.0000-0.5791 0.2314 (  2448 PWs)   bands (ev):

     2.1837   2.2156   3.6598   3.7050  10.7311  11.1959

          k = 0.0000-0.5791-0.3086 (  2440 PWs)   bands (ev):

     2.5294   2.5294   3.1933   3.1933  11.7092  11.7092

          k = 0.0836 0.1448 0.0000 (  2461 PWs)   bands (ev):

    -2.9155   2.3137   2.7801  10.9858  11.2827  15.3071

          k = 0.0836 0.1448 0.0771 (  2454 PWs)   bands (ev):

    -2.8278   1.2736   3.9693  11.0533  11.3531  14.6380

          k = 0.0836 0.1448 0.1543 (  2455 PWs)   bands (ev):

    -2.5654   0.1853   5.5043  11.2322  11.5570  12.9569

          k = 0.0836 0.1448 0.2314 (  2463 PWs)   bands (ev):

    -2.1299  -0.7503   7.1804  10.7938  11.7702  11.8506

          k = 0.0836 0.1448-0.3086 (  2466 PWs)   bands (ev):

    -1.5236  -1.5236   8.9754   8.9754  11.9807  11.9807

          k = 0.0836 0.2413 0.0000 (  2462 PWs)   bands (ev):

    -2.3684   2.8158   3.2964   8.6713  10.1549  13.3758

          k = 0.0836 0.2413 0.0771 (  2463 PWs)   bands (ev):

    -2.2813   1.7922   4.4639   8.7502  10.2162  12.5190

          k = 0.0836 0.2413 0.1543 (  2456 PWs)   bands (ev):

    -2.0205   0.7126   5.9708   8.9855  10.3626  11.6013

          k = 0.0836 0.2413 0.2314 (  2456 PWs)   bands (ev):

    -1.5876  -0.2166   7.5886   9.3661  10.2835  10.8983

          k = 0.0836 0.2413-0.3086 (  2460 PWs)   bands (ev):

    -0.9850  -0.9850   9.1781   9.1781  10.0461  10.0461

          k = 0.0836 0.3378 0.0000 (  2451 PWs)   bands (ev):

    -1.5541   3.5697   4.0081   6.4869   9.3438  11.1496

          k = 0.0836 0.3378 0.0771 (  2449 PWs)   bands (ev):

    -1.4677   2.5589   5.1159   6.6111   9.3327  10.4690

          k = 0.0836 0.3378 0.1543 (  2458 PWs)   bands (ev):

    -1.2093   1.4950   6.2778   7.1659   8.9876  10.0959

          k = 0.0836 0.3378 0.2314 (  2458 PWs)   bands (ev):

    -0.7804   0.5767   6.9388   8.1503   8.5945  10.3339

          k = 0.0836 0.3378-0.3086 (  2454 PWs)   bands (ev):

    -0.1838  -0.1838   7.5344   7.5344   9.9512   9.9512

          k = 0.0836 0.4343 0.0000 (  2438 PWs)   bands (ev):

    -0.4800   4.0109   4.5753   5.4551   8.6409   9.1383

          k = 0.0836 0.4343 0.0771 (  2444 PWs)   bands (ev):

    -0.3948   3.4812   4.4046   6.3623   8.0692   9.2076

          k = 0.0836 0.4343 0.1543 (  2452 PWs)   bands (ev):

    -0.1398   2.5062   4.6104   7.0982   7.7950   9.4981

          k = 0.0836 0.4343 0.2314 (  2448 PWs)   bands (ev):

     0.2831   1.6162   5.0090   6.2798   9.0890  10.0720

          k = 0.0836 0.4343-0.3086 (  2446 PWs)   bands (ev):

     0.8705   0.8705   5.5696   5.5696   9.9663   9.9663

          k = 0.0836 0.5309 0.0000 (  2440 PWs)   bands (ev):

     0.8427   2.3913   5.8240   6.4583   7.3828   7.6951

          k = 0.0836 0.5309 0.0771 (  2439 PWs)   bands (ev):

     0.9260   2.4665   4.9368   6.3974   7.4739   8.5653

          k = 0.0836 0.5309 0.1543 (  2435 PWs)   bands (ev):

     1.1748   2.6714   3.9518   5.4046   8.5362   9.4923

          k = 0.0836 0.5309 0.2314 (  2439 PWs)   bands (ev):

     1.5846   2.7143   3.4265   4.5359   9.2215  10.3389

          k = 0.0836 0.5309-0.3086 (  2434 PWs)   bands (ev):

     2.1397   2.1397   3.8328   3.8328   9.8330   9.8330

          k = 0.1672 0.2896 0.0000 (  2449 PWs)   bands (ev):

    -1.6893   3.4440   3.9085   7.6061   8.0365  12.2326

          k = 0.1672 0.2896 0.0771 (  2459 PWs)   bands (ev):

    -1.6028   2.4332   5.0468   7.6813   8.1245  11.6130

          k = 0.1672 0.2896 0.1543 (  2451 PWs)   bands (ev):

    -1.3440   1.3657   6.4708   7.9029   8.3899  10.6764

          k = 0.1672 0.2896 0.2314 (  2461 PWs)   bands (ev):

    -0.9144   0.4452   7.8377   8.2506   8.7789   9.7980

          k = 0.1672 0.2896-0.3086 (  2454 PWs)   bands (ev):

    -0.3167  -0.3167   8.5880   8.5880   9.0224   9.0224

          k = 0.1672 0.3861 0.0000 (  2437 PWs)   bands (ev):

    -0.7472   4.3241   4.5508   5.8359   7.2693  10.3654

          k = 0.1672 0.3861 0.0771 (  2442 PWs)   bands (ev):

    -0.6617   3.3032   5.3714   6.1926   7.3823   9.6514

          k = 0.1672 0.3861 0.1543 (  2446 PWs)   bands (ev):

    -0.4058   2.2640   5.8024   7.0495   7.7723   8.9167

          k = 0.1672 0.3861 0.2314 (  2448 PWs)   bands (ev):

     0.0188   1.3601   6.2277   7.2791   7.9477   8.9867

          k = 0.1672 0.3861-0.3086 (  2450 PWs)   bands (ev):

     0.6090   0.6090   6.7590   6.7590   8.4225   8.4225

          k = 0.1672 0.4826 0.0000 (  2437 PWs)   bands (ev):

     0.4486   3.5093   5.4538   5.8594   7.0252   8.5030

          k = 0.1672 0.4826 0.0771 (  2432 PWs)   bands (ev):

     0.5327   3.5415   4.6052   6.4758   7.2014   8.1370

          k = 0.1672 0.4826 0.1543 (  2439 PWs)   bands (ev):

     0.7841   3.2727   4.1046   6.3536   7.1538   8.8943

          k = 0.1672 0.4826 0.2314 (  2439 PWs)   bands (ev):

     1.2003   2.4948   4.3968   5.6185   7.5119   8.7263

          k = 0.1672 0.4826-0.3086 (  2444 PWs)   bands (ev):

     1.7756   1.7756   4.9326   4.9326   8.0591   8.0591

          k = 0.1672 0.5791 0.0000 (  2444 PWs)   bands (ev):

     1.8714   1.8951   6.1715   6.6687   7.0386   7.2619

          k = 0.1672 0.5791 0.0771 (  2435 PWs)   bands (ev):

     1.9512   1.9767   5.7062   5.9472   6.7412   8.4601

          k = 0.1672 0.5791 0.1543 (  2438 PWs)   bands (ev):

     2.1878   2.2178   4.8619   4.9065   6.9808   9.2466

          k = 0.1672 0.5791 0.2314 (  2432 PWs)   bands (ev):

     2.5638   2.5961   4.0478   4.0621   7.3819   8.6214

          k = 0.1672 0.5791-0.3086 (  2428 PWs)   bands (ev):

     2.8994   2.8994   3.5819   3.5819   7.9362   7.9362

          k = 0.2508 0.4343 0.0000 (  2429 PWs)   bands (ev):

     0.3167   4.6359   4.9393   5.3291   6.5571   9.6294

          k = 0.2508 0.4343 0.0771 (  2436 PWs)   bands (ev):

     0.4010   4.1513   5.0166   5.2631   7.2591   9.0450

          k = 0.2508 0.4343 0.1543 (  2443 PWs)   bands (ev):

     0.6531   3.2436   5.2448   5.4467   7.7265   8.1353

          k = 0.2508 0.4343 0.2314 (  2451 PWs)   bands (ev):

     1.0708   2.3812   5.6035   5.7791   7.1102   7.3251

          k = 0.2508 0.4343-0.3086 (  2448 PWs)   bands (ev):

     1.6498   1.6498   5.9505   5.9505   6.8143   6.8143

          k = 0.2508 0.5309 0.0000 (  2441 PWs)   bands (ev):

     1.6260   3.1571   4.6289   6.5728   7.3884   8.1154

          k = 0.2508 0.5309 0.0771 (  2437 PWs)   bands (ev):

     1.7080   3.2295   4.6566   5.8450   7.2081   8.3153

          k = 0.2508 0.5309 0.1543 (  2434 PWs)   bands (ev):

     1.9527   3.4228   4.4991   5.2254   6.3596   7.7522

          k = 0.2508 0.5309 0.2314 (  2432 PWs)   bands (ev):

     2.3542   3.4419   4.1600   5.0493   5.9230   6.9375

          k = 0.2508 0.5309-0.3086 (  2436 PWs)   bands (ev):

     2.8932   2.8932   4.5357   4.5357   6.2734   6.2734

          k = 0.3344 0.5791 0.0000 (  2442 PWs)   bands (ev):

     3.0127   3.0469   3.0469   7.7764   7.7764   7.9629

          k = 0.3344 0.5791 0.0771 (  2436 PWs)   bands (ev):

     3.0936   3.1213   3.1213   6.9742   7.1946   7.1946

          k = 0.3344 0.5791 0.1543 (  2442 PWs)   bands (ev):

     3.3355   3.3355   3.3364   5.9280   6.2984   6.2984

          k = 0.3344 0.5791 0.2314 (  2421 PWs)   bands (ev):

     3.6417   3.6417   3.7412   5.0375   5.5448   5.5448

          k = 0.3344 0.5791-0.3086 (  2412 PWs)   bands (ev):

     3.8357   3.8357   4.3083   4.3083   5.1984   5.1984

     the Fermi energy is     3.5656 ev

!    total energy              =     -67.27337328 Ry
     total all-electron energy =      -801.381791 Ry
     estimated scf accuracy    <          5.6E-10 Ry
     smearing contrib. (-TS)   =       0.00005757 Ry
     internal energy E=F+TS    =     -67.27343085 Ry

     The total energy is F=E-TS. E is the sum of the following terms:
     one-electron contribution =       2.85290909 Ry
     hartree contribution      =       0.00764756 Ry
     xc contribution           =      -3.19018859 Ry
     ewald contribution        =      -4.30866009 Ry
     DFT-D3 Dispersion         =      -0.03954006 Ry
     one-center paw contrib.   =     -62.59559877 Ry

     convergence has been achieved in   3 iterations

     Forces acting on atoms (cartesian axes, Ry/au):

     atom    1 type  1   force =     0.00000000    0.00000000    0.00000000
     atom    2 type  1   force =    -0.00000000   -0.00000000   -0.00000000

     Total force =     0.000000     Total SCF correction =     0.000000


     Computing stress (Cartesian axis) and pressure

          total   stress  (Ry/bohr**3)                   (kbar)     P=      -17.82
  -0.00009879  -0.00000000  -0.00000000          -14.53       -0.00       -0.00
  -0.00000000  -0.00009879  -0.00000000           -0.00      -14.53       -0.00
  -0.00000000  -0.00000000  -0.00016583           -0.00       -0.00      -24.39

     Energy error            =      4.7E-04 Ry
     Gradient error          =      1.0E-32 Ry/Bohr
     Cell gradient error     =      2.4E+01 kbar

     number of scf cycles    =   2
     number of bfgs steps    =   1

     enthalpy           old  =     -67.2728983106 Ry
     enthalpy           new  =     -67.2733732813 Ry

     CASE: enthalpy          _new < enthalpy          _old


     WARNING: bfgs curvature condition failed, Theta= 0.957
     new trust radius        =       0.0253532595 bohr
     new conv_thr            =            1.0E-11 Ry

     new unit-cell volume =    303.56063 a.u.^3 (    44.98305 Ang^3 )
     density =      1.79443 g/cm^3

CELL_PARAMETERS (angstrom)
   3.176550972   0.000000000   0.000000000
  -1.588275486   2.750973838  -0.000000000
  -0.000000000  -0.000000000   5.147620975

ATOMIC_POSITIONS (angstrom)
Mg              -0.0000000000        1.8339825588        1.2869052437
Mg               1.5882754860        0.9169912794        3.8607157311



     Writing config-only to output data dir ./outdir/mg.save/ :
     XML data file
     NEW-OLD atomic charge density approx. for the potential
     New effective cutoffs (rho, wfc):  490.86   61.46

     total cpu time spent up to now is       11.9 secs

     Self-consistent Calculation

     iteration #  1     ecut=    60.00 Ry     beta= 0.40
     Davidson diagonalization with overlap
     ethr =  1.00E-06,  avg # of iterations =  2.4

     Threshold (ethr) on eigenvalues was too large:
     Diagonalizing with lowered threshold

     Davidson diagonalization with overlap
     ethr =  3.18E-08,  avg # of iterations =  1.5

     total cpu time spent up to now is       12.8 secs

     total energy              =     -67.27391171 Ry
     estimated scf accuracy    <       0.00000119 Ry

     iteration #  2     ecut=    60.00 Ry     beta= 0.40
     Davidson diagonalization with overlap
     ethr =  2.97E-08,  avg # of iterations =  1.1

     total cpu time spent up to now is       13.2 secs

     total energy              =     -67.27391123 Ry
     estimated scf accuracy    <       0.00000042 Ry

     iteration #  3     ecut=    60.00 Ry     beta= 0.40
     Davidson diagonalization with overlap
     ethr =  1.05E-08,  avg # of iterations =  1.8

     total cpu time spent up to now is       13.9 secs

     total energy              =     -67.27391128 Ry
     estimated scf accuracy    <          9.4E-10 Ry

     iteration #  4     ecut=    60.00 Ry     beta= 0.40
     Davidson diagonalization with overlap
     c_bands:  1 eigenvalues not converged
     ethr =  2.34E-11,  avg # of iterations =  5.9

     total cpu time spent up to now is       15.1 secs

     total energy              =     -67.27391136 Ry
     estimated scf accuracy    <          1.9E-10 Ry

     iteration #  5     ecut=    60.00 Ry     beta= 0.40
     Davidson diagonalization with overlap
     ethr =  4.83E-12,  avg # of iterations =  1.3

     total cpu time spent up to now is       15.4 secs

     total energy              =     -67.27391136 Ry
     estimated scf accuracy    <          6.5E-11 Ry

     iteration #  6     ecut=    60.00 Ry     beta= 0.40
     Davidson diagonalization with overlap
     ethr =  1.64E-12,  avg # of iterations =  4.3

     total cpu time spent up to now is       16.5 secs

     End of self-consistent calculation

          k = 0.0000 0.0000 0.0000 (  2479 PWs)   bands (ev):

    -3.2980   2.0254   2.5098  14.7696  14.9004  14.9005

          k =-0.0000 0.0000 0.0777 (  2461 PWs)   bands (ev):

    -3.2087   0.9695   3.7186  14.7963  14.9593  14.9595

          k =-0.0000 0.0000 0.1554 (  2436 PWs)   bands (ev):

    -2.9412  -0.1387   5.2853  12.8741  15.1296  15.1296

          k =-0.0000 0.0000 0.2331 (  2454 PWs)   bands (ev):

    -2.4972  -1.0916   7.0014  10.8262  15.3737  15.3737

          k = 0.0000-0.0000-0.3108 (  2472 PWs)   bands (ev):

    -1.8795  -1.8795   8.8538   8.8538  15.5230  15.5230

          k =-0.0000 0.0969 0.0000 (  2465 PWs)   bands (ev):

    -3.1591   2.1516   2.6441  12.4786  13.5677  14.3753

          k =-0.0000 0.0969 0.0777 (  2452 PWs)   bands (ev):

    -3.0699   1.1012   3.8468  12.5414  13.6399  14.3266

          k =-0.0000 0.0969 0.1554 (  2448 PWs)   bands (ev):

    -2.8028  -0.0048   5.4093  12.5771  13.2108  13.8561

          k =-0.0000 0.0969 0.2331 (  2464 PWs)   bands (ev):

    -2.3596  -0.9562   7.1197  10.9105  13.2004  14.1520

          k =-0.0000 0.0969-0.3108 (  2456 PWs)   bands (ev):

    -1.7428  -1.7428   8.9626   8.9626  13.6503  13.6503

          k =-0.0000 0.1939 0.0000 (  2457 PWs)   bands (ev):

    -2.7436   2.5305   3.0415   9.9318  12.5297  13.1366

          k =-0.0000 0.1939 0.0777 (  2453 PWs)   bands (ev):

    -2.6548   1.4948   4.2268  10.0086  12.6034  13.0092

          k =-0.0000 0.1939 0.1554 (  2454 PWs)   bands (ev):

    -2.3890   0.3954   5.7736  10.2340  12.4611  12.8248

          k =-0.0000 0.1939 0.2331 (  2461 PWs)   bands (ev):

    -1.9478  -0.5511   7.4584  10.5221  11.2717  11.9323

          k =-0.0000 0.1939-0.3108 (  2464 PWs)   bands (ev):

    -1.3339  -1.3339   9.2423   9.2423  11.2465  11.2465

          k =-0.0000 0.2908 0.0000 (  2453 PWs)   bands (ev):

    -2.0554   3.1626   3.6762   7.5788  11.7233  11.8131

          k =-0.0000 0.2908 0.0777 (  2455 PWs)   bands (ev):

    -1.9673   2.1448   4.8307   7.6705  11.1691  11.7973

          k =-0.0000 0.2908 0.1554 (  2454 PWs)   bands (ev):

    -1.7036   1.0572   6.3060   7.9626  10.2692  12.0196

          k =-0.0000 0.2908 0.2331 (  2449 PWs)   bands (ev):

    -1.2659   0.1194   7.7030   8.5896   9.4651  11.8243

          k =-0.0000 0.2908-0.3108 (  2454 PWs)   bands (ev):

    -0.6569  -0.6569   8.5821   8.5821  10.1355  10.1355

          k =-0.0000 0.3877 0.0000 (  2453 PWs)   bands (ev):

    -1.1011   4.0485   4.3286   5.6692  10.1678  10.3401

          k =-0.0000 0.3877 0.0777 (  2451 PWs)   bands (ev):

    -1.0140   3.0293   5.1048   6.1368   9.1843  11.2226

          k =-0.0000 0.3877 0.1554 (  2461 PWs)   bands (ev):

    -0.7532   1.9687   5.5347   7.4027   8.2386  11.4447

          k =-0.0000 0.3877 0.2331 (  2456 PWs)   bands (ev):

    -0.3206   1.0467   5.9813   7.2747   9.0898  11.8154

          k =-0.0000 0.3877-0.3108 (  2444 PWs)   bands (ev):

     0.2810   0.2810   6.5604   6.5604  10.7574  10.7574

          k =-0.0000 0.4847 0.0000 (  2449 PWs)   bands (ev):

     0.1100   3.2108   5.1870   5.9821   8.2618   8.7863

          k =-0.0000 0.4847 0.0777 (  2442 PWs)   bands (ev):

     0.1957   3.2472   4.3599   6.9199   7.4167   9.7895

          k =-0.0000 0.4847 0.1554 (  2439 PWs)   bands (ev):

     0.4521   2.9923   3.8201   6.2792   8.4921  11.1000

          k =-0.0000 0.4847 0.2331 (  2446 PWs)   bands (ev):

     0.8766   2.1987   4.1174   5.4017  10.0353  11.4702

          k =-0.0000 0.4847-0.3108 (  2456 PWs)   bands (ev):

     1.4637   1.4637   4.6734   4.6734  11.4891  11.4891

          k = 0.0000-0.5816-0.0000 (  2436 PWs)   bands (ev):

     1.5504   1.5757   6.4266   6.7656   7.0830   7.4831

          k = 0.0000-0.5816 0.0777 (  2436 PWs)   bands (ev):

     1.6316   1.6596   5.6670   5.6877   8.3121   8.3454

          k = 0.0000-0.5816 0.1554 (  2432 PWs)   bands (ev):

     1.8724   1.9075   4.6298   4.6730   9.6256   9.8098

          k = 0.0000-0.5816 0.2331 (  2448 PWs)   bands (ev):

     2.2562   2.2978   3.7569   3.8111  10.8832  11.3551

          k = 0.0000-0.5816-0.3108 (  2440 PWs)   bands (ev):

     2.6079   2.6079   3.2919   3.2919  11.8737  11.8737

          k = 0.0839 0.1454 0.0000 (  2461 PWs)   bands (ev):

    -2.8818   2.4042   2.9101  11.1232  11.4416  15.4888

          k = 0.0839 0.1454 0.0777 (  2454 PWs)   bands (ev):

    -2.7929   1.3639   4.1011  11.1919  11.5124  14.8372

          k = 0.0839 0.1454 0.1554 (  2455 PWs)   bands (ev):

    -2.5267   0.2622   5.6540  11.3762  11.7173  13.1726

          k = 0.0839 0.1454 0.2331 (  2463 PWs)   bands (ev):

    -2.0848  -0.6859   7.3500  10.9964  11.9187  12.0093

          k = 0.0839 0.1454-0.3108 (  2466 PWs)   bands (ev):

    -1.4700  -1.4700   9.1656   9.1656  12.1279  12.1279

          k = 0.0839 0.2423 0.0000 (  2462 PWs)   bands (ev):

    -2.3300   2.9097   3.4288   8.7998  10.2984  13.5453

          k = 0.0839 0.2423 0.0777 (  2463 PWs)   bands (ev):

    -2.2417   1.8860   4.5976   8.8799  10.3599  12.6930

          k = 0.0839 0.2423 0.1554 (  2456 PWs)   bands (ev):

    -1.9771   0.7933   6.1206   9.1189  10.5053  11.7715

          k = 0.0839 0.2423 0.2331 (  2456 PWs)   bands (ev):

    -1.5380  -0.1481   7.7538   9.5074  10.4203  11.0764

          k = 0.0839 0.2423-0.3108 (  2460 PWs)   bands (ev):

    -0.9271  -0.9271   9.3460   9.3460  10.2001  10.2001

          k = 0.0839 0.3393 0.0000 (  2451 PWs)   bands (ev):

    -1.5088   3.6687   4.1392   6.6061   9.4794  11.3020

          k = 0.0839 0.3393 0.0777 (  2449 PWs)   bands (ev):

    -1.4213   2.6574   5.2443   6.7358   9.4666  10.6310

          k = 0.0839 0.3393 0.1554 (  2458 PWs)   bands (ev):

    -1.1592   1.5813   6.3963   7.3185   9.1189  10.2575

          k = 0.0839 0.3393 0.2331 (  2458 PWs)   bands (ev):

    -0.7243   0.6512   7.0541   8.2931   8.7517  10.4987

          k = 0.0839 0.3393-0.3108 (  2454 PWs)   bands (ev):

    -0.1194  -0.1194   7.6569   7.6569  10.1190  10.1191

          k = 0.0839 0.4362 0.0000 (  2438 PWs)   bands (ev):

    -0.4260   4.1001   4.6815   5.6063   8.7723   9.2755

          k = 0.0839 0.4362 0.0777 (  2444 PWs)   bands (ev):

    -0.3396   3.5800   4.5023   6.5140   8.1994   9.3536

          k = 0.0839 0.4362 0.1554 (  2452 PWs)   bands (ev):

    -0.0811   2.5982   4.7079   7.2291   7.9469   9.6552

          k = 0.0839 0.4362 0.2331 (  2448 PWs)   bands (ev):

     0.3475   1.6979   5.1112   6.3975   9.2392  10.2482

          k = 0.0839 0.4362-0.3108 (  2446 PWs)   bands (ev):

     0.9427   0.9427   5.6787   5.6787  10.1140  10.1140

          k = 0.0839 0.5331 0.0000 (  2440 PWs)   bands (ev):

     0.9070   2.4670   5.9402   6.6125   7.5060   7.8369

          k = 0.0839 0.5331 0.0777 (  2439 PWs)   bands (ev):

     0.9914   2.5430   5.0540   6.5252   7.6163   8.7086

          k = 0.0839 0.5331 0.1554 (  2435 PWs)   bands (ev):

     1.2434   2.7500   4.0594   5.5208   8.6702   9.6659

          k = 0.0839 0.5331 0.2331 (  2439 PWs)   bands (ev):

     1.6584   2.7964   3.5252   4.6423   9.3569  10.5001

          k = 0.0839 0.5331-0.3108 (  2434 PWs)   bands (ev):

     2.2198   2.2198   3.9315   3.9315   9.9772   9.9772

          k = 0.1679 0.2908 0.0000 (  2449 PWs)   bands (ev):

    -1.6451   3.5422   4.0417   7.7164   8.1786  12.3969

          k = 0.1679 0.2908 0.0777 (  2459 PWs)   bands (ev):

    -1.5575   2.5310   5.1801   7.7925   8.2686  11.7819

          k = 0.1679 0.2908 0.1554 (  2451 PWs)   bands (ev):

    -1.2950   1.4511   6.6140   8.0168   8.5400  10.8393

          k = 0.1679 0.2908 0.2331 (  2461 PWs)   bands (ev):

    -0.8594   0.5188   7.9789   8.3684   8.9336   9.9524

          k = 0.1679 0.2908-0.3108 (  2454 PWs)   bands (ev):

    -0.2534  -0.2534   8.7088   8.7088   9.1749   9.1749

          k = 0.1679 0.3877 0.0000 (  2437 PWs)   bands (ev):

    -0.6954   4.4284   4.6684   5.9552   7.4029  10.5131

          k = 0.1679 0.3877 0.0777 (  2442 PWs)   bands (ev):

    -0.6087   3.4056   5.4757   6.3223   7.5222   9.8076

          k = 0.1679 0.3877 0.1554 (  2446 PWs)   bands (ev):

    -0.3492   2.3552   5.9064   7.1666   7.9294   9.0800

          k = 0.1679 0.3877 0.2331 (  2448 PWs)   bands (ev):

     0.0812   1.4402   6.3366   7.3930   8.0867   9.1392

          k = 0.1679 0.3877-0.3108 (  2450 PWs)   bands (ev):

     0.6794   0.6794   6.8731   6.8731   8.5603   8.5603

          k = 0.1679 0.4847 0.0000 (  2437 PWs)   bands (ev):

     0.5099   3.5926   5.5665   5.9836   7.1743   8.6358

          k = 0.1679 0.4847 0.0777 (  2432 PWs)   bands (ev):

     0.5951   3.6255   4.7186   6.5828   7.3527   8.2949

          k = 0.1679 0.4847 0.1554 (  2439 PWs)   bands (ev):

     0.8499   3.3634   4.2045   6.4662   7.2825   9.0690

          k = 0.1679 0.4847 0.2331 (  2439 PWs)   bands (ev):

     1.2715   2.5814   4.4954   5.7292   7.6391   8.8689

          k = 0.1679 0.4847-0.3108 (  2444 PWs)   bands (ev):

     1.8541   1.8541   5.0366   5.0366   8.1926   8.1926

          k = 0.1679 0.5816 0.0000 (  2444 PWs)   bands (ev):

     1.9382   1.9725   6.2728   6.7973   7.1532   7.4280

          k = 0.1679 0.5816 0.0777 (  2435 PWs)   bands (ev):

     2.0190   2.0551   5.8185   6.0694   6.8624   8.6193

          k = 0.1679 0.5816 0.1554 (  2438 PWs)   bands (ev):

     2.2585   2.2989   4.9742   5.0162   7.1017   9.4001

          k = 0.1679 0.5816 0.2331 (  2432 PWs)   bands (ev):

     2.6390   2.6806   4.1477   4.1686   7.5073   8.7624

          k = 0.1679 0.5816-0.3108 (  2428 PWs)   bands (ev):

     2.9804   2.9804   3.6825   3.6825   8.0685   8.0685

          k = 0.2518 0.4362 0.0000 (  2429 PWs)   bands (ev):

     0.3770   4.7315   5.0292   5.4408   6.7294   9.7766

          k = 0.2518 0.4362 0.0777 (  2436 PWs)   bands (ev):

     0.4624   4.2517   5.1074   5.3731   7.4261   9.1968

          k = 0.2518 0.4362 0.1554 (  2443 PWs)   bands (ev):

     0.7179   3.3392   5.3382   5.5563   7.8655   8.2823

          k = 0.2518 0.4362 0.2331 (  2451 PWs)   bands (ev):

     1.1411   2.4678   5.7007   5.8890   7.2386   7.4649

          k = 0.2518 0.4362-0.3108 (  2448 PWs)   bands (ev):

     1.7275   1.7275   6.0524   6.0524   6.9484   6.9484

          k = 0.2518 0.5331 0.0000 (  2441 PWs)   bands (ev):

     1.6961   3.2382   4.7192   6.6946   7.5593   8.2461

          k = 0.2518 0.5331 0.0777 (  2437 PWs)   bands (ev):

     1.7792   3.3113   4.7471   5.9709   7.3460   8.4717

          k = 0.2518 0.5331 0.1554 (  2434 PWs)   bands (ev):

     2.0269   3.5065   4.5968   5.3356   6.4913   7.8921

          k = 0.2518 0.5331 0.2331 (  2432 PWs)   bands (ev):

     2.4333   3.5286   4.2594   5.1490   6.0505   7.0687

          k = 0.2518 0.5331-0.3108 (  2436 PWs)   bands (ev):

     2.9780   2.9780   4.6348   4.6348   6.3988   6.3988

          k = 0.3358 0.5816 0.0000 (  2442 PWs)   bands (ev):

     3.0832   3.1318   3.1318   7.9118   7.9118   8.1254

          k = 0.3358 0.5816 0.0777 (  2436 PWs)   bands (ev):

     3.1652   3.2069   3.2069   7.1015   7.3348   7.3348

          k = 0.3358 0.5816 0.1554 (  2442 PWs)   bands (ev):

     3.4113   3.4228   3.4228   6.0389   6.4348   6.4348

          k = 0.3358 0.5816 0.2331 (  2421 PWs)   bands (ev):

     3.7302   3.7302   3.8216   5.1356   5.6766   5.6766

          k = 0.3358 0.5816-0.3108 (  2412 PWs)   bands (ev):

     3.9233   3.9233   4.3964   4.3964   5.3296   5.3296

     the Fermi energy is     3.6595 ev

!    total energy              =     -67.27391136 Ry
     total all-electron energy =      -801.382329 Ry
     estimated scf accuracy    <          5.5E-13 Ry
     smearing contrib. (-TS)   =       0.00008414 Ry
     internal energy E=F+TS    =     -67.27399550 Ry

     The total energy is F=E-TS. E is the sum of the following terms:
     one-electron contribution =       2.88823033 Ry
     hartree contribution      =       0.00799581 Ry
     xc contribution           =      -3.20014359 Ry
     ewald contribution        =      -4.33147186 Ry
     DFT-D3 Dispersion         =      -0.04013449 Ry
     one-center paw contrib.   =     -62.59847171 Ry

     convergence has been achieved in   6 iterations

     Forces acting on atoms (cartesian axes, Ry/au):

     atom    1 type  1   force =     0.00000000    0.00000000    0.00000000
     atom    2 type  1   force =     0.00000000    0.00000000    0.00000000

     Total force =     0.000000     Total SCF correction =     0.000000


     Computing stress (Cartesian axis) and pressure

          total   stress  (Ry/bohr**3)                   (kbar)     P=      -12.40
  -0.00006454  -0.00000000   0.00000000           -9.49       -0.00        0.00
  -0.00000000  -0.00006454  -0.00000000           -0.00       -9.49       -0.00
   0.00000000  -0.00000000  -0.00012378            0.00       -0.00      -18.21

     Energy error            =      5.4E-04 Ry
     Gradient error          =      0.0E+00 Ry/Bohr
     Cell gradient error     =      1.8E+01 kbar

     number of scf cycles    =   3
     number of bfgs steps    =   2

     enthalpy           old  =     -67.2733732813 Ry
     enthalpy           new  =     -67.2739113605 Ry

     CASE: enthalpy          _new < enthalpy          _old

     new trust radius        =       0.0380038200 bohr
     new conv_thr            =            1.0E-11 Ry

     new unit-cell volume =    296.65896 a.u.^3 (    43.96032 Ang^3 )
     density =      1.83617 g/cm^3

CELL_PARAMETERS (angstrom)
   3.157498167  -0.000000000   0.000000000
  -1.578749084   2.734473625  -0.000000000
  -0.000000000  -0.000000000   5.091479852

ATOMIC_POSITIONS (angstrom)
Mg              -0.0000000000        1.8229824168        1.2728699630
Mg               1.5787490836        0.9114912084        3.8186098891



     Writing config-only to output data dir ./outdir/mg.save/ :
     XML data file
     NEW-OLD atomic charge density approx. for the potential
     New effective cutoffs (rho, wfc):  501.37   62.82

     total cpu time spent up to now is       17.1 secs

     Self-consistent Calculation

     iteration #  1     ecut=    60.00 Ry     beta= 0.40
     Davidson diagonalization with overlap
     ethr =  1.00E-06,  avg # of iterations =  2.9

     Threshold (ethr) on eigenvalues was too large:
     Diagonalizing with lowered threshold

     Davidson diagonalization with overlap
     ethr =  6.51E-08,  avg # of iterations =  1.3

     total cpu time spent up to now is       18.2 secs

     total energy              =     -67.27434605 Ry
     estimated scf accuracy    <       0.00000247 Ry

     iteration #  2     ecut=    60.00 Ry     beta= 0.40
     Davidson diagonalization with overlap
     ethr =  6.16E-08,  avg # of iterations =  1.0

     total cpu time spent up to now is       18.6 secs

     total energy              =     -67.27434507 Ry
     estimated scf accuracy    <       0.00000087 Ry

     iteration #  3     ecut=    60.00 Ry     beta= 0.40
     Davidson diagonalization with overlap
     ethr =  2.17E-08,  avg # of iterations =  1.0

     total cpu time spent up to now is       18.9 secs

     total energy              =     -67.27434510 Ry
     estimated scf accuracy    <          2.3E-09 Ry

     iteration #  4     ecut=    60.00 Ry     beta= 0.40
     Davidson diagonalization with overlap
     c_bands:  2 eigenvalues not converged
     ethr =  5.83E-11,  avg # of iterations =  5.7

     total cpu time spent up to now is       20.0 secs

     total energy              =     -67.27434521 Ry
     estimated scf accuracy    <          3.0E-10 Ry

     iteration #  5     ecut=    60.00 Ry     beta= 0.40
     Davidson diagonalization with overlap
     ethr =  7.62E-12,  avg # of iterations =  1.4

     total cpu time spent up to now is       20.4 secs

     total energy              =     -67.27434521 Ry
     estimated scf accuracy    <          7.5E-11 Ry

     iteration #  6     ecut=    60.00 Ry     beta= 0.40
     Davidson diagonalization with overlap
     ethr =  1.87E-12,  avg # of iterations =  4.3

     total cpu time spent up to now is       21.5 secs

     End of self-consistent calculation

          k = 0.0000 0.0000 0.0000 (  2479 PWs)   bands (ev):

    -3.2531   2.1602   2.7042  14.9963  15.1627  15.1628

          k =-0.0000 0.0000 0.0786 (  2461 PWs)   bands (ev):

    -3.1618   1.1029   3.9169  15.1566  15.2210  15.2212

          k =-0.0000 0.0000 0.1571 (  2436 PWs)   bands (ev):

    -2.8883  -0.0262   5.5121  13.2349  15.3891  15.3892

          k =-0.0000 0.0000 0.2357 (  2454 PWs)   bands (ev):

    -2.4346  -0.9987   7.2604  11.1553  15.6255  15.6255

          k = 0.0000-0.0000-0.3143 (  2472 PWs)   bands (ev):

    -1.8034  -1.8034   9.1473   9.1473  15.7576  15.7576

          k = 0.0000 0.0975 0.0000 (  2465 PWs)   bands (ev):

    -3.1125   2.2875   2.8397  12.6988  13.8034  14.6184

          k = 0.0000 0.0975 0.0786 (  2452 PWs)   bands (ev):

    -3.0213   1.2358   4.0461  12.7636  13.8766  14.5844

          k = 0.0000 0.0975 0.1571 (  2448 PWs)   bands (ev):

    -2.7483   0.1090   5.6368  12.8398  13.5306  14.0958

          k = 0.0000 0.0975 0.2357 (  2464 PWs)   bands (ev):

    -2.2953  -0.8618   7.3789  11.2363  13.4315  14.3842

          k = 0.0000 0.0975-0.3143 (  2456 PWs)   bands (ev):

    -1.6651  -1.6651   9.2555   9.2555  13.8833  13.8833

          k = 0.0000 0.1950 0.0000 (  2457 PWs)   bands (ev):

    -2.6919   2.6698   3.2401  10.1280  12.7589  13.3575

          k = 0.0000 0.1950 0.0786 (  2453 PWs)   bands (ev):

    -2.6011   1.6331   4.4286  10.2065  12.8338  13.2292

          k = 0.0000 0.1950 0.1571 (  2454 PWs)   bands (ev):

    -2.3295   0.5133   6.0021  10.4373  12.6848  13.0586

          k = 0.0000 0.1950 0.2357 (  2461 PWs)   bands (ev):

    -1.8787  -0.4523   7.7161  10.7481  11.5468  12.1834

          k = 0.0000 0.1950-0.3143 (  2464 PWs)   bands (ev):

    -1.2516  -1.2516   9.5269   9.5269  11.4687  11.4687

          k = 0.0000 0.2926 0.0000 (  2453 PWs)   bands (ev):

    -1.9955   3.3077   3.8771   7.7555  11.9472  12.0255

          k = 0.0000 0.2926 0.0786 (  2455 PWs)   bands (ev):

    -1.9055   2.2888   5.0331   7.8504  11.3862  12.0224

          k = 0.0000 0.2926 0.1571 (  2454 PWs)   bands (ev):

    -1.6360   1.1817   6.5253   8.1563  10.4786  12.2483

          k = 0.0000 0.2926 0.2357 (  2449 PWs)   bands (ev):

    -1.1889   0.2253   7.9088   8.8303   9.6654  12.1331

          k = 0.0000 0.2926-0.3143 (  2454 PWs)   bands (ev):

    -0.5670  -0.5670   8.7748   8.7748  10.4273  10.4273

          k = 0.0000 0.3901 0.0000 (  2453 PWs)   bands (ev):

    -1.0301   4.2019   4.5008   5.8604  10.3789  10.5637

          k = 0.0000 0.3901 0.0786 (  2451 PWs)   bands (ev):

    -0.9411   3.1797   5.2528   6.3590   9.3909  11.4439

          k = 0.0000 0.3901 0.1571 (  2461 PWs)   bands (ev):

    -0.6748   2.1015   5.6821   7.6515   8.4326  11.6696

          k = 0.0000 0.3901 0.2357 (  2456 PWs)   bands (ev):

    -0.2330   1.1620   6.1371   7.4571   9.3594  12.0463

          k = 0.0000 0.3901-0.3143 (  2444 PWs)   bands (ev):

     0.3810   0.3810   6.7276   6.7276  11.0455  11.0455

          k = 0.0000 0.4876 0.0000 (  2449 PWs)   bands (ev):

     0.1947   3.3273   5.3516   6.2174   8.4533   9.0201

          k = 0.0000 0.4876 0.0786 (  2442 PWs)   bands (ev):

     0.2821   3.3651   4.5270   7.1517   7.6100  10.0196

          k = 0.0000 0.4876 0.1571 (  2439 PWs)   bands (ev):

     0.5437   3.1231   3.9629   6.4589   8.7402  11.3226

          k = 0.0000 0.4876 0.2357 (  2446 PWs)   bands (ev):

     0.9768   2.3234   4.2575   5.5649  10.2987  11.6986

          k = 0.0000 0.4876-0.3143 (  2456 PWs)   bands (ev):

     1.5754   1.5754   4.8230   4.8230  11.7462  11.7462

          k =-0.0000-0.5851-0.0000 (  2436 PWs)   bands (ev):

     1.6432   1.6832   6.6147   6.9309   7.3316   7.7086

          k =-0.0000-0.5851 0.0786 (  2436 PWs)   bands (ev):

     1.7259   1.7687   5.8511   5.8644   8.5519   8.5716

          k =-0.0000-0.5851 0.1571 (  2432 PWs)   bands (ev):

     1.9713   2.0212   4.7879   4.8428   9.8544  10.0751

          k =-0.0000-0.5851 0.2357 (  2448 PWs)   bands (ev):

     2.3623   2.4174   3.8999   3.9668  11.1064  11.5828

          k =-0.0000-0.5851-0.3143 (  2440 PWs)   bands (ev):

     2.7231   2.7231   3.4360   3.4360  12.1095  12.1095

          k = 0.0845 0.1463 0.0000 (  2461 PWs)   bands (ev):

    -2.8318   2.5423   3.1078  11.3189  11.6683  15.7481

          k = 0.0845 0.1463 0.0786 (  2454 PWs)   bands (ev):

    -2.7409   1.5009   4.3022  11.3894  11.7399  15.1252

          k = 0.0845 0.1463 0.1571 (  2455 PWs)   bands (ev):

    -2.4688   0.3788   5.8824  11.5819  11.9464  13.4964

          k = 0.0845 0.1463 0.2357 (  2463 PWs)   bands (ev):

    -2.0173  -0.5886   7.6089  11.3011  12.1347  12.2365

          k = 0.0845 0.1463-0.3143 (  2466 PWs)   bands (ev):

    -1.3892  -1.3892   9.4556   9.4556  12.3389  12.3389

          k = 0.0845 0.2438 0.0000 (  2462 PWs)   bands (ev):

    -2.2734   3.0524   3.6296   8.9834  10.5038  13.7918

          k = 0.0845 0.2438 0.0786 (  2463 PWs)   bands (ev):

    -2.1831   2.0277   4.8010   9.0653  10.5658  12.9456

          k = 0.0845 0.2438 0.1571 (  2456 PWs)   bands (ev):

    -1.9127   0.9153   6.3482   9.3103  10.7102  12.0189

          k = 0.0845 0.2438 0.2357 (  2456 PWs)   bands (ev):

    -1.4641  -0.0450   8.0041   9.7118  10.6177  11.3384

          k = 0.0845 0.2438-0.3143 (  2460 PWs)   bands (ev):

    -0.8401  -0.8401   9.5948   9.5948  10.4280  10.4280

          k = 0.0845 0.3413 0.0000 (  2451 PWs)   bands (ev):

    -1.4425   3.8185   4.3364   6.7784   9.6742  11.5251

          k = 0.0845 0.3413 0.0786 (  2449 PWs)   bands (ev):

    -1.3530   2.8057   5.4369   6.9173   9.6598  10.8665

          k = 0.0845 0.3413 0.1571 (  2458 PWs)   bands (ev):

    -1.0854   1.7107   6.5697   7.5467   9.3093  10.4913

          k = 0.0845 0.3413 0.2357 (  2458 PWs)   bands (ev):

    -0.6412   0.7626   7.2210   8.4989   8.9897  10.7392

          k = 0.0845 0.3413-0.3143 (  2454 PWs)   bands (ev):

    -0.0237  -0.0237   7.8341   7.8341  10.3674  10.3674

          k = 0.0845 0.4388 0.0000 (  2438 PWs)   bands (ev):

    -0.3473   4.2296   4.8410   5.8319   8.9632   9.4777

          k = 0.0845 0.4388 0.0786 (  2444 PWs)   bands (ev):

    -0.2591   3.7270   4.6445   6.7417   8.3899   9.5655

          k = 0.0845 0.4388 0.1571 (  2452 PWs)   bands (ev):

     0.0048   2.7353   4.8488   7.4203   8.1745   9.8843

          k = 0.0845 0.4388 0.2357 (  2448 PWs)   bands (ev):

     0.4423   1.8192   5.2589   6.5692   9.4601  10.5078

          k = 0.0845 0.4388-0.3143 (  2446 PWs)   bands (ev):

     1.0495   1.0495   5.8370   5.8370  10.3289  10.3289

          k = 0.0845 0.5364 0.0000 (  2440 PWs)   bands (ev):

     1.0001   2.5763   6.1133   6.8417   7.6889   8.0462

          k = 0.0845 0.5364 0.0786 (  2439 PWs)   bands (ev):

     1.0862   2.6537   5.2279   6.7137   7.8275   8.9217

          k = 0.0845 0.5364 0.1571 (  2435 PWs)   bands (ev):

     1.3432   2.8642   4.2183   5.6920   8.8655   9.9251

          k = 0.0845 0.5364 0.2357 (  2439 PWs)   bands (ev):

     1.7662   2.9171   3.6691   4.7982   9.5529  10.7353

          k = 0.0845 0.5364-0.3143 (  2434 PWs)   bands (ev):

     2.3373   2.3373   4.0754   4.0754  10.1860  10.1860

          k = 0.1689 0.2926 0.0000 (  2449 PWs)   bands (ev):

    -1.5804   3.6908   4.2426   7.8740   8.3837  12.6364

          k = 0.1689 0.2926 0.0786 (  2459 PWs)   bands (ev):

    -1.4908   2.6783   5.3818   7.9516   8.4770  12.0277

          k = 0.1689 0.2926 0.1571 (  2451 PWs)   bands (ev):

    -1.2227   1.5794   6.8293   8.1800   8.7589  11.0762

          k = 0.1689 0.2926 0.2357 (  2461 PWs)   bands (ev):

    -0.7778   0.6288   8.1869   8.5379   9.1621  10.1773

          k = 0.1689 0.2926-0.3143 (  2454 PWs)   bands (ev):

    -0.1591  -0.1591   8.8829   8.8829   9.3991   9.3991

          k = 0.1689 0.3901 0.0000 (  2437 PWs)   bands (ev):

    -0.6197   4.5854   4.8422   6.1287   7.5981  10.7297

          k = 0.1689 0.3901 0.0786 (  2442 PWs)   bands (ev):

    -0.5312   3.5588   5.6278   6.5124   7.7286  10.0359

          k = 0.1689 0.3901 0.1571 (  2446 PWs)   bands (ev):

    -0.2662   2.4914   6.0564   7.3363   8.1639   9.3200

          k = 0.1689 0.3901 0.2357 (  2448 PWs)   bands (ev):

     0.1731   1.5594   6.4936   7.5576   8.2901   9.3611

          k = 0.1689 0.3901-0.3143 (  2450 PWs)   bands (ev):

     0.7835   0.7835   7.0380   7.0380   8.7607   8.7607

          k = 0.1689 0.4876 0.0000 (  2437 PWs)   bands (ev):

     0.5988   3.7128   5.7349   6.1640   7.3971   8.8318

          k = 0.1689 0.4876 0.0786 (  2432 PWs)   bands (ev):

     0.6858   3.7471   4.8864   6.7377   7.5783   8.5284

          k = 0.1689 0.4876 0.1571 (  2439 PWs)   bands (ev):

     0.9457   3.4972   4.3499   6.6300   7.4706   9.3283

          k = 0.1689 0.4876 0.2357 (  2439 PWs)   bands (ev):

     1.3758   2.7095   4.6382   5.8907   7.8234   9.0766

          k = 0.1689 0.4876-0.3143 (  2444 PWs)   bands (ev):

     1.9695   1.9695   5.1878   5.1878   8.3861   8.3861

          k = 0.1689 0.5851 0.0000 (  2444 PWs)   bands (ev):

     2.0348   2.0839   6.4191   6.9884   7.3236   7.6778

          k = 0.1689 0.5851 0.0786 (  2435 PWs)   bands (ev):

     2.1172   2.1681   5.9826   6.2503   7.0395   8.8590

          k = 0.1689 0.5851 0.1571 (  2438 PWs)   bands (ev):

     2.3614   2.4163   5.1389   5.1783   7.2766   9.6261

          k = 0.1689 0.5851 0.2357 (  2432 PWs)   bands (ev):

     2.7489   2.8035   4.2946   4.3244   7.6884   8.9677

          k = 0.1689 0.5851-0.3143 (  2428 PWs)   bands (ev):

     3.0991   3.0991   3.8292   3.8292   8.2602   8.2602

          k = 0.2534 0.4388 0.0000 (  2429 PWs)   bands (ev):

     0.4645   4.8704   5.1582   5.6078   6.9862   9.9928

          k = 0.2534 0.4388 0.0786 (  2436 PWs)   bands (ev):

     0.5517   4.4001   5.2379   5.5334   7.6767   9.4188

          k = 0.2534 0.4388 0.1571 (  2443 PWs)   bands (ev):

     0.8124   3.4811   5.4728   5.7143   8.0707   8.4967

          k = 0.2534 0.4388 0.2357 (  2451 PWs)   bands (ev):

     1.2441   2.5959   5.8413   6.0475   7.4265   7.6682

          k = 0.2534 0.4388-0.3143 (  2448 PWs)   bands (ev):

     1.8420   1.8420   6.2001   6.2001   7.1430   7.1430

          k = 0.2534 0.5364 0.0000 (  2441 PWs)   bands (ev):

     1.7973   3.3549   4.8490   6.8757   7.8153   8.4392

          k = 0.2534 0.5364 0.0786 (  2437 PWs)   bands (ev):

     1.8820   3.4293   4.8777   6.1565   7.5497   8.7036

          k = 0.2534 0.5364 0.1571 (  2434 PWs)   bands (ev):

     2.1345   3.6277   4.7392   5.4966   6.6846   8.0973

          k = 0.2534 0.5364 0.2357 (  2432 PWs)   bands (ev):

     2.5484   3.6556   4.4039   5.2943   6.2359   7.2602

          k = 0.2534 0.5364-0.3143 (  2436 PWs)   bands (ev):

     3.1021   3.1021   4.7791   4.7791   6.5811   6.5811

          k = 0.3378 0.5851 0.0000 (  2442 PWs)   bands (ev):

     3.1853   3.2539   3.2539   8.1121   8.1121   8.3698

          k = 0.3378 0.5851 0.0786 (  2436 PWs)   bands (ev):

     3.2689   3.3301   3.3301   7.2903   7.5411   7.5411

          k = 0.3378 0.5851 0.1571 (  2442 PWs)   bands (ev):

     3.5201   3.5488   3.5488   6.2028   6.6347   6.6347

          k = 0.3378 0.5851 0.2357 (  2421 PWs)   bands (ev):

     3.8586   3.8586   3.9388   5.2801   5.8687   5.8687

          k = 0.3378 0.5851-0.3143 (  2412 PWs)   bands (ev):

     4.0510   4.0510   4.5254   4.5254   5.5202   5.5202

     the Fermi energy is     3.7973 ev

!    total energy              =     -67.27434521 Ry
     total all-electron energy =      -801.382763 Ry
     estimated scf accuracy    <          1.2E-13 Ry
     smearing contrib. (-TS)   =       0.00011880 Ry
     internal energy E=F+TS    =     -67.27446402 Ry

     The total energy is F=E-TS. E is the sum of the following terms:
     one-electron contribution =       2.94040945 Ry
     hartree contribution      =       0.00851855 Ry
     xc contribution           =      -3.21477538 Ry
     ewald contribution        =      -4.36473451 Ry
     DFT-D3 Dispersion         =      -0.04101230 Ry
     one-center paw contrib.   =     -62.60286982 Ry

     convergence has been achieved in   6 iterations

     Forces acting on atoms (cartesian axes, Ry/au):

     atom    1 type  1   force =     0.00000000    0.00000000    0.00000000
     atom    2 type  1   force =     0.00000000    0.00000000    0.00000000

     Total force =     0.000000     Total SCF correction =     0.000000


     Computing stress (Cartesian axis) and pressure

          total   stress  (Ry/bohr**3)                   (kbar)     P=       -3.82
  -0.00001256  -0.00000000   0.00000000           -1.85       -0.00        0.00
  -0.00000000  -0.00001256  -0.00000000           -0.00       -1.85       -0.00
   0.00000000   0.00000000  -0.00005288            0.00        0.00       -7.78

     Energy error            =      4.3E-04 Ry
     Gradient error          =      0.0E+00 Ry/Bohr
     Cell gradient error     =      7.8E+00 kbar

     number of scf cycles    =   4
     number of bfgs steps    =   3

     enthalpy           old  =     -67.2739113605 Ry
     enthalpy           new  =     -67.2743452131 Ry

     CASE: enthalpy          _new < enthalpy          _old

     new trust radius        =       0.0209809767 bohr
     new conv_thr            =            1.0E-11 Ry

     new unit-cell volume =    293.22299 a.u.^3 (    43.45116 Ang^3 )
     density =      1.85769 g/cm^3

CELL_PARAMETERS (angstrom)
   3.148763172  -0.000000000   0.000000000
  -1.574381586   2.726908897   0.000000000
  -0.000000000  -0.000000000   5.060469193

ATOMIC_POSITIONS (angstrom)
Mg              -0.0000000000        1.8179392647        1.2651172983
Mg               1.5743815858        0.9089696324        3.7953518948



     Writing config-only to output data dir ./outdir/mg.save/ :
     XML data file
     NEW-OLD atomic charge density approx. for the potential
     New effective cutoffs (rho, wfc):  507.29   63.59

     total cpu time spent up to now is       22.2 secs

     Self-consistent Calculation

     iteration #  1     ecut=    60.00 Ry     beta= 0.40
     Davidson diagonalization with overlap
     ethr =  1.00E-06,  avg # of iterations =  2.1

     Threshold (ethr) on eigenvalues was too large:
     Diagonalizing with lowered threshold

     Davidson diagonalization with overlap
     ethr =  1.73E-08,  avg # of iterations =  1.5

     total cpu time spent up to now is       23.1 secs

     total energy              =     -67.27440300 Ry
     estimated scf accuracy    <       0.00000065 Ry

     iteration #  2     ecut=    60.00 Ry     beta= 0.40
     Davidson diagonalization with overlap
     ethr =  1.63E-08,  avg # of iterations =  1.0

     total cpu time spent up to now is       23.4 secs

     total energy              =     -67.27440275 Ry
     estimated scf accuracy    <       0.00000023 Ry

     iteration #  3     ecut=    60.00 Ry     beta= 0.40
     Davidson diagonalization with overlap
     ethr =  5.66E-09,  avg # of iterations =  1.0

     total cpu time spent up to now is       23.8 secs

     total energy              =     -67.27440276 Ry
     estimated scf accuracy    <          7.5E-10 Ry

     iteration #  4     ecut=    60.00 Ry     beta= 0.40
     Davidson diagonalization with overlap
     ethr =  1.88E-11,  avg # of iterations =  5.4

     total cpu time spent up to now is       24.8 secs

     total energy              =     -67.27440279 Ry
     estimated scf accuracy    <          6.2E-11 Ry

     iteration #  5     ecut=    60.00 Ry     beta= 0.40
     Davidson diagonalization with overlap
     ethr =  1.55E-12,  avg # of iterations =  1.7

     total cpu time spent up to now is       25.3 secs

     total energy              =     -67.27440279 Ry
     estimated scf accuracy    <          1.7E-11 Ry

     iteration #  6     ecut=    60.00 Ry     beta= 0.40
     Davidson diagonalization with overlap
     ethr =  4.29E-13,  avg # of iterations =  4.3

     total cpu time spent up to now is       26.5 secs

     End of self-consistent calculation

          k = 0.0000 0.0000 0.0000 (  2479 PWs)   bands (ev):

    -3.2297   2.2348   2.8119  15.1030  15.2857  15.2860

          k =-0.0000-0.0000 0.0790 (  2461 PWs)   bands (ev):

    -3.1373   1.1763   4.0272  15.3438  15.3442  15.3520

          k =-0.0000-0.0000 0.1581 (  2436 PWs)   bands (ev):

    -2.8605   0.0354   5.6384  13.4359  15.5112  15.5114

          k =-0.0000-0.0000 0.2371 (  2454 PWs)   bands (ev):

    -2.4011  -0.9482   7.4050  11.3391  15.7444  15.7444

          k = 0.0000 0.0000-0.3162 (  2472 PWs)   bands (ev):

    -1.7623  -1.7623   9.3113   9.3113  15.8693  15.8693

          k = 0.0000 0.0978 0.0000 (  2465 PWs)   bands (ev):

    -3.0883   2.3626   2.9479  12.8033  13.9143  14.7351

          k = 0.0000 0.0978 0.0790 (  2452 PWs)   bands (ev):

    -2.9960   1.3098   4.1568  12.8694  13.9881  14.7092

          k = 0.0000 0.0978 0.1581 (  2448 PWs)   bands (ev):

    -2.7196   0.1712   5.7633  12.9682  13.7073  14.2090

[...]
     c_bands:  1 eigenvalues not converged
     c_bands:  4 eigenvalues not converged
     c_bands:  2 eigenvalues not converged
     c_bands:  4 eigenvalues not converged
     c_bands:  3 eigenvalues not converged
     c_bands:  2 eigenvalues not converged
     c_bands:  1 eigenvalues not converged
     c_bands:  4 eigenvalues not converged
     c_bands:  4 eigenvalues not converged
     c_bands:  4 eigenvalues not converged
     c_bands:  4 eigenvalues not converged
     c_bands:  4 eigenvalues not converged
     c_bands:  4 eigenvalues not converged
     c_bands:  4 eigenvalues not converged
     c_bands:  3 eigenvalues not converged
     c_bands:  3 eigenvalues not converged
     c_bands:  3 eigenvalues not converged
     c_bands:  3 eigenvalues not converged
     c_bands:  2 eigenvalues not converged
     c_bands:  4 eigenvalues not converged
     c_bands:  4 eigenvalues not converged
     c_bands:  1 eigenvalues not converged
     c_bands:  3 eigenvalues not converged
     c_bands:  2 eigenvalues not converged
     c_bands:  3 eigenvalues not converged
     c_bands:  3 eigenvalues not converged
     c_bands:  4 eigenvalues not converged
     c_bands:  4 eigenvalues not converged
     c_bands:  3 eigenvalues not converged
     c_bands:  3 eigenvalues not converged
     c_bands:  1 eigenvalues not converged
     c_bands:  1 eigenvalues not converged
     c_bands:  4 eigenvalues not converged
     c_bands:  4 eigenvalues not converged
     c_bands:  1 eigenvalues not converged
     c_bands:  3 eigenvalues not converged
     c_bands:  1 eigenvalues not converged
     c_bands:  1 eigenvalues not converged
     c_bands:  3 eigenvalues not converged
     ethr =  1.00E-06,  avg # of iterations = 18.7

     total cpu time spent up to now is       46.4 secs

     total energy              =     -67.27446311 Ry
     estimated scf accuracy    <       0.00688494 Ry

     iteration #  2     ecut=    60.00 Ry     beta= 0.40
     Davidson diagonalization with overlap
     ethr =  1.72E-04,  avg # of iterations =  1.3

     total cpu time spent up to now is       46.8 secs

     total energy              =     -67.27441637 Ry
     estimated scf accuracy    <       0.00249921 Ry

     iteration #  3     ecut=    60.00 Ry     beta= 0.40
     Davidson diagonalization with overlap
     ethr =  6.25E-05,  avg # of iterations =  1.0

     total cpu time spent up to now is       47.1 secs

     total energy              =     -67.27442530 Ry
     estimated scf accuracy    <       0.00000052 Ry

     iteration #  4     ecut=    60.00 Ry     beta= 0.40
     Davidson diagonalization with overlap
     ethr =  1.31E-08,  avg # of iterations =  6.3

     total cpu time spent up to now is       48.4 secs

     total energy              =     -67.27443134 Ry
     estimated scf accuracy    <       0.00000007 Ry

     iteration #  5     ecut=    60.00 Ry     beta= 0.40
     Davidson diagonalization with overlap
     ethr =  1.79E-09,  avg # of iterations =  2.1

     total cpu time spent up to now is       49.1 secs

     total energy              =     -67.27443135 Ry
     estimated scf accuracy    <          7.5E-09 Ry

     iteration #  6     ecut=    60.00 Ry     beta= 0.40
     Davidson diagonalization with overlap
     ethr =  1.87E-10,  avg # of iterations =  2.5

     total cpu time spent up to now is       49.9 secs

     total energy              =     -67.27443135 Ry
     estimated scf accuracy    <          1.2E-09 Ry

     iteration #  7     ecut=    60.00 Ry     beta= 0.40
     Davidson diagonalization with overlap
     ethr =  3.02E-11,  avg # of iterations =  3.0

     total cpu time spent up to now is       50.9 secs

     total energy              =     -67.27443135 Ry
     estimated scf accuracy    <          3.4E-11 Ry

     iteration #  8     ecut=    60.00 Ry     beta= 0.40
     Davidson diagonalization with overlap
     ethr =  8.50E-13,  avg # of iterations =  4.3

     total cpu time spent up to now is       52.0 secs

     End of self-consistent calculation

          k = 0.0000 0.0000 0.0000 (  2321 PWs)   bands (ev):

    -3.2338   2.2786   2.8897  14.9751  15.1308  15.1308

          k =-0.0000-0.0000 0.0795 (  2327 PWs)   bands (ev):

    -3.1403   1.2195   4.1070  15.0474  15.1908  15.1909

          k =-0.0000-0.0000 0.1590 (  2315 PWs)   bands (ev):

    -2.8604   0.0673   5.7339  13.5950  15.3628  15.3634

          k =-0.0000-0.0000 0.2385 (  2334 PWs)   bands (ev):

    -2.3958  -0.9268   7.5183  11.4891  15.6079  15.6080

          k = 0.0000 0.0000-0.3180 (  2364 PWs)   bands (ev):

    -1.7499  -1.7499   9.4434   9.4434  15.7510  15.7510

          k =-0.0000 0.0974-0.0000 (  2315 PWs)   bands (ev):

    -3.0935   2.4054   3.0243  12.6866  13.7790  14.6212

          k =-0.0000 0.0974 0.0795 (  2316 PWs)   bands (ev):

    -3.0001   1.3518   4.2354  12.7558  13.8538  14.6143

          k =-0.0000 0.0974 0.1590 (  2319 PWs)   bands (ev):

    -2.7206   0.2021   5.8574  12.9030  13.8019  14.0778

          k =-0.0000 0.0974 0.2385 (  2321 PWs)   bands (ev):

    -2.2569  -0.7902   7.6349  11.5601  13.4360  14.4484

          k =-0.0000 0.0974-0.3180 (  2336 PWs)   bands (ev):

    -1.6120  -1.6120   9.5482   9.5482  13.8919  13.8919

          k =-0.0000 0.1948-0.0000 (  2315 PWs)   bands (ev):

    -2.6738   2.7859   3.4220  10.1227  12.7368  13.3709

          k =-0.0000 0.1948 0.0795 (  2309 PWs)   bands (ev):

    -2.5809   1.7472   4.6149  10.2037  12.8133  13.2527

          k =-0.0000 0.1948 0.1590 (  2311 PWs)   bands (ev):

    -2.3027   0.6049   6.2179  10.4432  12.7267  13.0430

          k =-0.0000 0.1948 0.2385 (  2305 PWs)   bands (ev):

    -1.8413  -0.3821   7.9628  10.7955  11.7274  12.3098

          k =-0.0000 0.1948-0.3180 (  2320 PWs)   bands (ev):

    -1.1996  -1.1996   9.7940   9.7940  11.5070  11.5070

          k =-0.0000 0.2922-0.0000 (  2295 PWs)   bands (ev):

    -1.9789   3.4208   4.0511   7.7611  11.9271  12.0714

          k =-0.0000 0.2922 0.0795 (  2308 PWs)   bands (ev):

    -1.8867   2.3997   5.2088   7.8612  11.4481  12.0040

          k =-0.0000 0.2922 0.1590 (  2307 PWs)   bands (ev):

    -1.6109   1.2707   6.7106   8.1924  10.5328  12.2347

          k =-0.0000 0.2922 0.2385 (  2313 PWs)   bands (ev):

    -1.1532   0.2933   8.0173   8.9757   9.7168  12.6195

          k =-0.0000 0.2922-0.3180 (  2316 PWs)   bands (ev):

    -0.5170  -0.5170   8.8224   8.8224  10.6793  10.6793

          k =-0.0000 0.3897-0.0000 (  2287 PWs)   bands (ev):

    -1.0155   4.3109   4.6091   5.9329  10.4608  10.6603

          k =-0.0000 0.3897 0.0795 (  2300 PWs)   bands (ev):

    -0.9244   3.2842   5.2955   6.5055   9.4701  11.4269

          k =-0.0000 0.3897 0.1590 (  2310 PWs)   bands (ev):

    -0.6518   2.1863   5.6995   7.8458   8.5036  11.6574

          k =-0.0000 0.3897 0.2385 (  2305 PWs)   bands (ev):

    -0.1997   1.2269   6.1585   7.5079   9.5874  12.0422

          k =-0.0000 0.3897-0.3180 (  2302 PWs)   bands (ev):

     0.4283   0.4283   6.7607   6.7607  11.2860  11.2860

          k =-0.0000 0.4871-0.0000 (  2300 PWs)   bands (ev):

     0.2065   3.3358   5.4555   6.3883   8.5436   9.1550

          k =-0.0000 0.4871 0.0795 (  2301 PWs)   bands (ev):

     0.2961   3.3804   4.6220   7.3144   7.7106  10.1490

          k =-0.0000 0.4871 0.1590 (  2296 PWs)   bands (ev):

     0.5638   3.1842   3.9974   6.5321   8.9320  11.3114

          k =-0.0000 0.4871 0.2385 (  2300 PWs)   bands (ev):

     1.0070   2.3827   4.2832   5.6182  10.5001  11.6954

          k =-0.0000 0.4871-0.3180 (  2304 PWs)   bands (ev):

     1.6191   1.6191   4.8601   4.8601  12.2337  12.2338

          k = 0.0000-0.5845 0.0000 (  2312 PWs)   bands (ev):

     1.6552   1.6888   6.7131   7.0277   7.5147   7.8443

          k = 0.0000-0.5845 0.0795 (  2302 PWs)   bands (ev):

     1.7399   1.7763   5.9421   5.9687   8.7095   8.7302

          k = 0.0000-0.5845 0.1590 (  2294 PWs)   bands (ev):

     1.9913   2.0351   4.8697   4.9157   9.9904  10.2810

          k = 0.0000-0.5845 0.2385 (  2302 PWs)   bands (ev):

     2.3919   2.4418   3.9606   4.0213  11.2199  11.5799

          k = 0.0000-0.5845-0.3180 (  2288 PWs)   bands (ev):

     2.7604   2.7604   3.4800   3.4800  12.1178  12.1178

          k = 0.0844 0.1461-0.0000 (  2307 PWs)   bands (ev):

    -2.8135   2.6590   3.2907  11.3100  11.6585  15.7464

          k = 0.0844 0.1461 0.0795 (  2322 PWs)   bands (ev):

    -2.7204   1.6157   4.4896  11.3835  11.7322  15.2178

          k = 0.0844 0.1461 0.1590 (  2312 PWs)   bands (ev):

    -2.4418   0.4709   6.1002  11.5899  11.9447  13.7556

          k = 0.0844 0.1461 0.2385 (  2309 PWs)   bands (ev):

    -1.9796  -0.5179   7.8600  11.5480  12.1939  12.2441

          k = 0.0844 0.1461-0.3180 (  2318 PWs)   bands (ev):

    -1.3368  -1.3368   9.7383   9.7383  12.3500  12.3501

          k = 0.0844 0.2435-0.0000 (  2305 PWs)   bands (ev):

    -2.2562   3.1667   3.8078   8.9821  10.5002  13.8572

          k = 0.0844 0.2435 0.0795 (  2312 PWs)   bands (ev):

    -2.1637   2.1399   4.9829   9.0668  10.5650  13.0155

          k = 0.0844 0.2435 0.1590 (  2308 PWs)   bands (ev):

    -1.8869   1.0053   6.5556   9.3211  10.7188  12.0814

          k = 0.0844 0.2435 0.2385 (  2315 PWs)   bands (ev):

    -1.4278   0.0239   8.2282   9.7471  10.6444  11.4555

          k = 0.0844 0.2435-0.3180 (  2314 PWs)   bands (ev):

    -0.7893  -0.7893   9.7562   9.7562  10.5386  10.5386

          k = 0.0844 0.3410-0.0000 (  2306 PWs)   bands (ev):

    -1.4270   3.9293   4.4963   6.7966   9.6803  11.6016

          k = 0.0844 0.3410 0.0795 (  2302 PWs)   bands (ev):

    -1.3355   2.9136   5.5842   6.9544   9.6756  10.9336

          k = 0.0844 0.3410 0.1590 (  2302 PWs)   bands (ev):

    -1.0615   1.7975   6.6383   7.6924   9.3524  10.5256

          k = 0.0844 0.3410 0.2385 (  2308 PWs)   bands (ev):

    -0.6069   0.8289   7.2485   8.5649   9.1690  10.7963

          k = 0.0844 0.3410-0.3180 (  2310 PWs)   bands (ev):

     0.0248   0.0248   7.8669   7.8669  10.5157  10.5157

          k = 0.0844 0.4384-0.0000 (  2301 PWs)   bands (ev):

    -0.3342   4.2530   4.9471   5.9838   8.9983   9.5635

          k = 0.0844 0.4384 0.0795 (  2304 PWs)   bands (ev):

    -0.2440   3.8119   4.6729   6.9109   8.4593   9.6016

          k = 0.0844 0.4384 0.1590 (  2302 PWs)   bands (ev):

     0.0261   2.8157   4.8642   7.4939   8.3387   9.9336

          k = 0.0844 0.4384 0.2385 (  2302 PWs)   bands (ev):

     0.4738   1.8816   5.2810   6.6195   9.5673  10.6294

          k = 0.0844 0.4384-0.3180 (  2300 PWs)   bands (ev):

     1.0949   1.0949   5.8714   5.8714  10.3848  10.3848

          k = 0.0844 0.5358-0.0000 (  2302 PWs)   bands (ev):

     1.0102   2.5837   6.2138   6.9974   7.7825   8.1536

          k = 0.0844 0.5358 0.0795 (  2306 PWs)   bands (ev):

     1.0984   2.6634   5.3261   6.8087   7.9553   9.0225

          k = 0.0844 0.5358 0.1590 (  2306 PWs)   bands (ev):

     1.3615   2.8819   4.2947   5.7662   8.9291  10.0844

          k = 0.0844 0.5358 0.2385 (  2303 PWs)   bands (ev):

     1.7943   2.9604   3.7102   4.8534   9.5835  10.8208

          k = 0.0844 0.5358-0.3180 (  2306 PWs)   bands (ev):

     2.3781   2.3781   4.1152   4.1152  10.2213  10.2213

          k = 0.1687 0.2922-0.0000 (  2307 PWs)   bands (ev):

    -1.5647   3.8021   4.4106   7.8719   8.3977  12.7047

          k = 0.1687 0.2922 0.0795 (  2313 PWs)   bands (ev):

    -1.4730   2.7872   5.5498   7.9515   8.4979  12.0980

          k = 0.1687 0.2922 0.1590 (  2310 PWs)   bands (ev):

    -1.1985   1.6667   7.0009   8.1859   8.8086  11.1377

          k = 0.1687 0.2922 0.2385 (  2315 PWs)   bands (ev):

    -0.7432   0.6955   8.2988   8.5533   9.2724  10.2347

          k = 0.1687 0.2922-0.3180 (  2312 PWs)   bands (ev):

    -0.1102  -0.1102   8.9038   8.9038   9.4919   9.4919

          k = 0.1687 0.3897-0.0000 (  2312 PWs)   bands (ev):

    -0.6060   4.6927   4.9487   6.1761   7.6302  10.8092

          k = 0.1687 0.3897 0.0795 (  2313 PWs)   bands (ev):

    -0.5154   3.6609   5.6713   6.6076   7.7870  10.1174

          k = 0.1687 0.3897 0.1590 (  2305 PWs)   bands (ev):

    -0.2443   2.5744   6.0725   7.3822   8.3068   9.4099

          k = 0.1687 0.3897 0.2385 (  2307 PWs)   bands (ev):

     0.2053   1.6229   6.5136   7.5874   8.3531   9.4332

          k = 0.1687 0.3897-0.3180 (  2302 PWs)   bands (ev):

     0.8297   0.8297   7.0681   7.0681   8.8026   8.8026

          k = 0.1687 0.4871-0.0000 (  2304 PWs)   bands (ev):

     0.6098   3.7206   5.8371   6.2464   7.5010   8.9203

          k = 0.1687 0.4871 0.0795 (  2304 PWs)   bands (ev):

     0.6988   3.7618   4.9767   6.7679   7.7166   8.6397

          k = 0.1687 0.4871 0.1590 (  2302 PWs)   bands (ev):

     0.9649   3.5563   4.3831   6.6794   7.5170   9.4868

          k = 0.1687 0.4871 0.2385 (  2301 PWs)   bands (ev):

     1.4049   2.7671   4.6630   5.9402   7.8493   9.1302

          k = 0.1687 0.4871-0.3180 (  2296 PWs)   bands (ev):

     2.0120   2.0120   5.2235   5.2235   8.4203   8.4203

          k = 0.1687 0.5845-0.0000 (  2296 PWs)   bands (ev):

     2.0460   2.0887   6.4387   7.0848   7.4190   7.8596

          k = 0.1687 0.5845 0.0795 (  2308 PWs)   bands (ev):

     2.1304   2.1750   6.0439   6.3541   7.0803   9.0305

          k = 0.1687 0.5845 0.1590 (  2300 PWs)   bands (ev):

     2.3805   2.4293   5.2040   5.2594   7.2959   9.7239

          k = 0.1687 0.5845 0.2385 (  2296 PWs)   bands (ev):

     2.7775   2.8267   4.3545   4.3760   7.7102   9.0183

          k = 0.1687 0.5845-0.3180 (  2304 PWs)   bands (ev):

     3.1349   3.1349   3.8722   3.8722   8.2930   8.2930

          k = 0.2531 0.4384-0.0000 (  2313 PWs)   bands (ev):

     0.4758   4.8989   5.1622   5.7105   7.1426  10.0738

          k = 0.2531 0.4384 0.0795 (  2302 PWs)   bands (ev):

     0.5650   4.4735   5.2438   5.5718   7.8500   9.4975

          k = 0.2531 0.4384 0.1590 (  2299 PWs)   bands (ev):

     0.8318   3.5560   5.4847   5.7315   8.1702   8.5610

          k = 0.2531 0.4384 0.2385 (  2296 PWs)   bands (ev):

     1.2736   2.6550   5.8625   6.0685   7.4837   7.7162

          k = 0.2531 0.4384-0.3180 (  2298 PWs)   bands (ev):

     1.8849   1.8849   6.2294   6.2294   7.1825   7.1825

          k = 0.2531 0.5358-0.0000 (  2309 PWs)   bands (ev):

     1.8058   3.3608   4.8551   6.9726   7.9945   8.5292

          k = 0.2531 0.5358 0.0795 (  2300 PWs)   bands (ev):

     1.8925   3.4375   4.8898   6.2483   7.6493   8.8329

          k = 0.2531 0.5358 0.1590 (  2297 PWs)   bands (ev):

     2.1510   3.6438   4.7844   5.5425   6.7551   8.1696

          k = 0.2531 0.5358 0.2385 (  2297 PWs)   bands (ev):

     2.5745   3.6953   4.4410   5.3352   6.2748   7.3118

          k = 0.2531 0.5358-0.3180 (  2298 PWs)   bands (ev):

     3.1400   3.1400   4.8160   4.8160   6.6181   6.6181

          k = 0.3375 0.5845-0.0000 (  2292 PWs)   bands (ev):

     3.1965   3.2569   3.2569   8.2026   8.2026   8.5480

          k = 0.3375 0.5845 0.0795 (  2295 PWs)   bands (ev):

     3.2822   3.3352   3.3352   7.4018   7.6270   7.6270

          k = 0.3375 0.5845 0.1590 (  2313 PWs)   bands (ev):

     3.5391   3.5600   3.5600   6.2860   6.7043   6.7043

          k = 0.3375 0.5845 0.2385 (  2298 PWs)   bands (ev):

     3.8791   3.8791   3.9677   5.3409   5.9206   5.9206

          k = 0.3375 0.5845-0.3180 (  2280 PWs)   bands (ev):

     4.0784   4.0784   4.5682   4.5682   5.5622   5.5622

     the Fermi energy is     3.8585 ev

!    total energy              =     -67.27443135 Ry
     total all-electron energy =      -801.382849 Ry
     estimated scf accuracy    <          6.0E-13 Ry
     smearing contrib. (-TS)   =       0.00014282 Ry
     internal energy E=F+TS    =     -67.27457417 Ry

     The total energy is F=E-TS. E is the sum of the following terms:
     one-electron contribution =       2.96234024 Ry
     hartree contribution      =       0.00883576 Ry
     xc contribution           =      -3.22106130 Ry
     ewald contribution        =      -4.37847207 Ry
     DFT-D3 Dispersion         =      -0.04138668 Ry
     one-center paw contrib.   =     -62.60483011 Ry

     convergence has been achieved in   8 iterations

     Forces acting on atoms (cartesian axes, Ry/au):

     atom    1 type  1   force =     0.00000000    0.00000000    0.00000000
     atom    2 type  1   force =     0.00000000    0.00000000    0.00000000

     Total force =     0.000000     Total SCF correction =     0.000000


     Computing stress (Cartesian axis) and pressure

          total   stress  (Ry/bohr**3)                   (kbar)     P=        0.05
   0.00000117   0.00000000  -0.00000000            0.17        0.00       -0.00
   0.00000000   0.00000117  -0.00000000            0.00        0.17       -0.00
  -0.00000000  -0.00000000  -0.00000123           -0.00       -0.00       -0.18


     Writing all to output data dir ./outdir/mg.save/ :
     XML data file, charge density, pseudopotentials, collected wavefunctions
 
     init_run     :      0.91s CPU      1.13s WALL (       2 calls)
     electrons    :     43.32s CPU     43.70s WALL (      12 calls)
     update_pot   :      0.12s CPU      0.12s WALL (      10 calls)
     forces       :      2.62s CPU      2.61s WALL (      12 calls)
     force_dftd3  :      1.02s CPU      1.02s WALL (      12 calls)
     stress       :      4.30s CPU      4.31s WALL (      12 calls)
     stres_dftd3  :      1.02s CPU      1.02s WALL (      12 calls)

     Called by init_run:
     wfcinit      :      0.31s CPU      0.45s WALL (       2 calls)
     potinit      :      0.33s CPU      0.34s WALL (       2 calls)
     hinit0       :      0.17s CPU      0.17s WALL (       2 calls)

     Called by electrons:
     c_bands      :     37.89s CPU     38.19s WALL (      69 calls)
     sum_band     :      2.64s CPU      2.69s WALL (      69 calls)
     v_of_rho     :      0.10s CPU      0.10s WALL (      70 calls)
     newd         :      1.67s CPU      1.71s WALL (      70 calls)
     PAW_pot      :      0.64s CPU      0.65s WALL (      80 calls)
     mix_rho      :      0.09s CPU      0.09s WALL (      69 calls)
     energy_dftd3 :      0.67s CPU      0.67s WALL (      12 calls)

     Called by c_bands:
     init_us_2    :      1.39s CPU      1.40s WALL (   16530 calls)
     cegterg      :     36.22s CPU     36.51s WALL (    6557 calls)

     Called by *egterg:
     cdiaghg      :      7.65s CPU      8.47s WALL (   21457 calls)
                                        8.40s GPU  (   21457 calls)
     h_psi        :      6.91s CPU      7.10s WALL (   23644 calls)
     s_psi        :      1.70s CPU      1.73s WALL (   23644 calls)
     g_psi        :      0.18s CPU      0.18s WALL (   16897 calls)

     Called by h_psi:
     h_psi:calbec :      0.29s CPU      0.40s WALL (   23644 calls)
     vloc_psi     :      3.44s CPU      3.58s WALL (   23644 calls)
                                        3.52s GPU  (   23644 calls)
     add_vuspsi   :      2.77s CPU      2.80s WALL (   23644 calls)

     General routines
     calbec       :      0.45s CPU      0.56s WALL (   50529 calls)
     fft          :      0.20s CPU      0.25s WALL (    1207 calls)
                                        0.05s GPU  (    1137 calls)
     ffts         :      0.16s CPU      0.16s WALL (     139 calls)
                                        0.00s GPU  (      69 calls)
     fftw         :      0.33s CPU      2.17s WALL (   53843 calls)
                                        2.03s GPU  (   53843 calls)
     interpolate  :      0.36s CPU      0.36s WALL (      70 calls)
 
 
     PWSCF        :     51.95s CPU     52.60s WALL

 
   This run was terminated on:   2:18:21  28May2026            

=------------------------------------------------------------------------------=
   JOB DONE.
=------------------------------------------------------------------------------=
