
     Program PWSCF v.7.5 starts on 28May2026 at  8:25:58 

     This program is part of the open-source Quantum ESPRESSO suite
     for quantum simulation of materials; please cite
         "P. Giannozzi et al., J. Phys.:Condens. Matter 21 395502 (2009);
         "P. Giannozzi et al., J. Phys.:Condens. Matter 29 465901 (2017);
         "P. Giannozzi et al., J. Chem. Phys. 152 154105 (2020);
          URL http://www.quantum-espresso.org", 
     in publications or presentations arising from this work. More details at
     http://www.quantum-espresso.org/quote

     Serial multi-threaded version, running on    1 processor cores
     12422 MiB available memory on the printing compute node when the environment starts
 
     Reading input from inputs/mgco.in

     Current dimensions of program PWSCF are:
     Max number of different atomic species (ntypx) = 10
     Max number of k-points (npk) =  40000
     Max angular momentum in pseudopotentials (lmaxx) =  4
     file Mg.pbe-n-kjpaw_psl.0.3.0.UPF: wavefunction(s)  3S renormalized
 
 
     G-vector sticks info
     --------------------
     sticks:   dense  smooth     PW     G-vecs:    dense   smooth      PW
     Sum        4855    2407    685               442799   156511   23931
 
     Using Slab Decomposition
 


     bravais-lattice index     =            0
     lattice parameter (alat)  =      12.0942  a.u.
     unit-cell volume          =    2494.3357 (a.u.)^3
     number of atoms/cell      =           16
     number of atomic types    =            2
     number of electrons       =        62.00
     number of Kohn-Sham states=           37
     kinetic-energy cutoff     =      60.0000  Ry
     charge density cutoff     =     480.0000  Ry
     scf convergence threshold =      1.0E-09
     mixing beta               =       0.3000
     number of iterations used =           12  plain     mixing
     energy convergence thresh.=      1.0E-05
     force convergence thresh. =      1.0E-04
     press convergence thresh. =      5.0E-01
     Exchange-correlation= SLA  PW   PBX  PBC
                           (   1   4   3   4   0   0   0)
     nstep                     =          200


     GPU acceleration is ACTIVE.  1 visible GPUs per MPI rank


     celldm(1)=  12.094247  celldm(2)=   0.000000  celldm(3)=   0.000000
     celldm(4)=   0.000000  celldm(5)=   0.000000  celldm(6)=   0.000000

     crystal axes: (cart. coord. in units of alat)
               a(1) = (   1.000000   0.000000   0.000000 )  
               a(2) = (  -0.500000   0.866025   0.000000 )  
               a(3) = (   0.000000   0.000000   1.628125 )  

     reciprocal axes: (cart. coord. in units 2 pi/alat)
               b(1) = (  1.000000  0.577350 -0.000000 )  
               b(2) = (  0.000000  1.154701  0.000000 )  
               b(3) = (  0.000000 -0.000000  0.614203 )  


     PseudoPot. # 1 for Co read from file:
     /home/x/Workspace/espresso/pseudo/Co_pbe_v1.2.uspp.F.UPF
     MD5 check sum: 5f91765df6ddd3222702df6e7b74a16d
     Pseudo is Ultrasoft + core correction, Zval = 17.0
     Generated by new atomic code, or converted to UPF format
     Using radial grid of  863 points,  6 beta functions with: 
                l(1) =   0
                l(2) =   0
                l(3) =   1
                l(4) =   1
                l(5) =   2
                l(6) =   2
     Q(r) pseudized with  8 coefficients,  rinner =    1.200   1.200   1.200
                                                       1.200   1.200

     PseudoPot. # 2 for Mg read from file:
     /home/x/Workspace/espresso/pseudo/Mg.pbe-n-kjpaw_psl.0.3.0.UPF
     MD5 check sum: 24ecedc7f3e3cbe212e682f4413594e4
     Pseudo is Projector augmented-wave + core cor, Zval =  2.0
     Generated using "atomic" code by A. Dal Corso  v.5.0.99 svn rev. 10869
     Shape of augmentation charge: PSQ
     Using radial grid of 1129 points,  4 beta functions with: 
                l(1) =   0
                l(2) =   0
                l(3) =   1
                l(4) =   1
     Q(r) pseudized with 0 coefficients 


     atomic species   valence    mass     pseudopotential
     Co               17.00    58.93320     Co( 1.00)
     Mg                2.00    24.30500     Mg( 1.00)

     No symmetry found



   Cartesian axes

     site n.     atom                  positions (alat units)
         1        Co     tau(   1) = (   0.0000000   0.2886751   0.2035156  )
         2        Mg     tau(   2) = (   0.2500000   0.1443376   0.6105469  )
         3        Mg     tau(   3) = (   0.0000000   0.2886751   1.0175781  )
         4        Mg     tau(   4) = (   0.2500000   0.1443376   1.4246094  )
         5        Mg     tau(   5) = (  -0.2500000   0.7216878   0.2035156  )
         6        Mg     tau(   6) = (   0.0000000   0.5773503   0.6105469  )
         7        Mg     tau(   7) = (  -0.2500000   0.7216878   1.0175781  )
         8        Mg     tau(   8) = (   0.0000000   0.5773503   1.4246094  )
         9        Mg     tau(   9) = (   0.5000000   0.2886751   0.2035156  )
        10        Mg     tau(  10) = (   0.7500000   0.1443376   0.6105469  )
        11        Mg     tau(  11) = (   0.5000000   0.2886751   1.0175781  )
        12        Co     tau(  12) = (   0.7500000   0.1443376   1.4246094  )
        13        Mg     tau(  13) = (   0.2500000   0.7216878   0.2035156  )
        14        Mg     tau(  14) = (   0.5000000   0.5773503   0.6105469  )
        15        Mg     tau(  15) = (   0.2500000   0.7216878   1.0175781  )
        16        Mg     tau(  16) = (   0.5000000   0.5773503   1.4246094  )

     --------------------------------------------
     DFT-D3 Dispersion Correction (3-body terms):
     --------------------------------------------
       Reference C6 values for interpolation: 

         atom   Coordination number   C6
         Mg         0.000          1366.75
         Mg         0.963           902.54
         Mg         1.950           351.12
         Co         0.000          1065.56
         Co         1.715           373.09
         Co         2.926           296.13
         Co         7.779           236.57

       Values used:

         atom   Coordination number  R0_AB[au]  C6      C8
         Co         3.108            3.243    296.17  26040.71
         Mg         7.727            3.292    351.12  31436.69
         Mg         7.725            3.292    351.12  31436.69
         Mg         6.943            3.292    351.12  31436.69
         Mg         7.308            3.292    351.12  31436.69
         Mg         7.727            3.292    351.12  31436.69
         Mg         8.092            3.292    351.12  31436.69
         Mg         6.943            3.292    351.12  31436.69
         Mg         6.943            3.292    351.12  31436.69
         Mg         7.725            3.292    351.12  31436.69
         Mg         7.727            3.292    351.12  31436.69
         Co         3.108            3.243    296.17  26040.71
         Mg         6.943            3.292    351.12  31436.69
         Mg         8.092            3.292    351.12  31436.69
         Mg         7.727            3.292    351.12  31436.69
         Mg         7.308            3.292    351.12  31436.69

         Molecular C6 ( Ry / a.u.^6 ) =     87824.90


     number of k points=   144  Marzari-Vanderbilt smearing, width (Ry)=  0.0100

     Number of k-points >= 100: set verbosity='high' to print them.

     Dense  grid:   442799 G-vectors     FFT dimensions: (  90,  90, 144)

     Smooth grid:   156511 G-vectors     FFT dimensions: (  60,  60, 100)

     Estimated max dynamical RAM per process >       3.43 GB

     Check: negative core charge=   -0.000002

     Initial potential from superposition of free atoms

     starting charge      59.9871, renormalised to      62.0000
     Starting wfcs are   82 randomized atomic wfcs

     total cpu time spent up to now is        5.7 secs

     Self-consistent Calculation

     iteration #  1     ecut=    60.00 Ry     beta= 0.30
     Davidson diagonalization with overlap
     ethr =  1.00E-02,  avg # of iterations =  3.0

     total cpu time spent up to now is       13.5 secs

     total energy              =   -1052.91989724 Ry
     estimated scf accuracy    <      34.39065539 Ry

     iteration #  2     ecut=    60.00 Ry     beta= 0.30
     Davidson diagonalization with overlap
     ethr =  1.00E-02,  avg # of iterations =  3.0

     total cpu time spent up to now is       22.2 secs

     total energy              =   -1067.01381185 Ry
     estimated scf accuracy    <      69.34849790 Ry

     iteration #  3     ecut=    60.00 Ry     beta= 0.30
     Davidson diagonalization with overlap
     ethr =  1.00E-02,  avg # of iterations =  3.6

     total cpu time spent up to now is       32.6 secs

     total energy              =   -1068.20941095 Ry
     estimated scf accuracy    <      18.65346819 Ry

     iteration #  4     ecut=    60.00 Ry     beta= 0.30
     Davidson diagonalization with overlap
     ethr =  1.00E-02,  avg # of iterations =  2.0

     total cpu time spent up to now is       39.0 secs

     total energy              =   -1066.83261817 Ry
     estimated scf accuracy    <      11.74334648 Ry

     iteration #  5     ecut=    60.00 Ry     beta= 0.30
     Davidson diagonalization with overlap
     ethr =  1.00E-02,  avg # of iterations =  2.1

     total cpu time spent up to now is       45.6 secs

     total energy              =   -1067.63902335 Ry
     estimated scf accuracy    <       2.68815929 Ry

     iteration #  6     ecut=    60.00 Ry     beta= 0.30
     Davidson diagonalization with overlap
     ethr =  4.34E-03,  avg # of iterations =  1.3

     total cpu time spent up to now is       51.6 secs

     total energy              =   -1067.39159874 Ry
     estimated scf accuracy    <       2.25106676 Ry

     iteration #  7     ecut=    60.00 Ry     beta= 0.30
     Davidson diagonalization with overlap
     ethr =  3.63E-03,  avg # of iterations =  1.9

     total cpu time spent up to now is       59.4 secs

     total energy              =   -1067.77901176 Ry
     estimated scf accuracy    <       2.85214472 Ry

     iteration #  8     ecut=    60.00 Ry     beta= 0.30
     Davidson diagonalization with overlap
     ethr =  3.63E-03,  avg # of iterations =  1.0

     total cpu time spent up to now is       64.4 secs

     total energy              =   -1067.57848339 Ry
     estimated scf accuracy    <       3.10912695 Ry

     iteration #  9     ecut=    60.00 Ry     beta= 0.30
     Davidson diagonalization with overlap
     ethr =  3.63E-03,  avg # of iterations =  1.0

     total cpu time spent up to now is       69.4 secs

     total energy              =   -1067.65166805 Ry
     estimated scf accuracy    <       0.06410793 Ry

     iteration # 10     ecut=    60.00 Ry     beta= 0.30
     Davidson diagonalization with overlap
     ethr =  1.03E-04,  avg # of iterations =  5.6

     total cpu time spent up to now is       85.7 secs

     total energy              =   -1067.66837427 Ry
     estimated scf accuracy    <       0.05517244 Ry

     iteration # 11     ecut=    60.00 Ry     beta= 0.30
     Davidson diagonalization with overlap
     ethr =  8.90E-05,  avg # of iterations =  3.2

     total cpu time spent up to now is       93.8 secs

     total energy              =   -1067.64882858 Ry
     estimated scf accuracy    <       1.43287510 Ry

     iteration # 12     ecut=    60.00 Ry     beta= 0.30
     Davidson diagonalization with overlap
     ethr =  8.90E-05,  avg # of iterations =  2.1

     total cpu time spent up to now is      101.5 secs

     total energy              =   -1067.66143504 Ry
     estimated scf accuracy    <       0.14130128 Ry

     iteration # 13     ecut=    60.00 Ry     beta= 0.30
     Davidson diagonalization with overlap
     ethr =  8.90E-05,  avg # of iterations =  1.0

     total cpu time spent up to now is      106.5 secs

     total energy              =   -1067.65759635 Ry
     estimated scf accuracy    <       0.06828919 Ry

     iteration # 14     ecut=    60.00 Ry     beta= 0.30
     Davidson diagonalization with overlap
     ethr =  8.90E-05,  avg # of iterations =  1.8

     total cpu time spent up to now is      114.3 secs

     total energy              =   -1067.65807948 Ry
     estimated scf accuracy    <       0.02772326 Ry

     iteration # 15     ecut=    60.00 Ry     beta= 0.30
     Davidson diagonalization with overlap
     ethr =  4.47E-05,  avg # of iterations =  2.0

     total cpu time spent up to now is      121.5 secs

     total energy              =   -1067.65824590 Ry
     estimated scf accuracy    <       0.14120244 Ry

     iteration # 16     ecut=    60.00 Ry     beta= 0.30
     Davidson diagonalization with overlap
     ethr =  4.47E-05,  avg # of iterations =  1.0

     total cpu time spent up to now is      126.6 secs

     total energy              =   -1067.66204844 Ry
     estimated scf accuracy    <       0.00026740 Ry

     iteration # 17     ecut=    60.00 Ry     beta= 0.30
     Davidson diagonalization with overlap
     c_bands:  1 eigenvalues not converged
     c_bands:  1 eigenvalues not converged
     c_bands:  1 eigenvalues not converged
     c_bands:  1 eigenvalues not converged
     ethr =  4.31E-07,  avg # of iterations =  5.2

     total cpu time spent up to now is      142.1 secs

     total energy              =   -1067.66257272 Ry
     estimated scf accuracy    <       0.00296774 Ry

     iteration # 18     ecut=    60.00 Ry     beta= 0.30
     Davidson diagonalization with overlap
     ethr =  4.31E-07,  avg # of iterations =  1.6

     total cpu time spent up to now is      148.9 secs

     total energy              =   -1067.66260889 Ry
     estimated scf accuracy    <       0.00067603 Ry

     iteration # 19     ecut=    60.00 Ry     beta= 0.30
     Davidson diagonalization with overlap
     ethr =  4.31E-07,  avg # of iterations =  1.0

     total cpu time spent up to now is      153.9 secs

     total energy              =   -1067.66258667 Ry
     estimated scf accuracy    <       0.00108204 Ry

     iteration # 20     ecut=    60.00 Ry     beta= 0.30
     Davidson diagonalization with overlap
     ethr =  4.31E-07,  avg # of iterations =  1.0

     total cpu time spent up to now is      158.9 secs

     total energy              =   -1067.66259987 Ry
     estimated scf accuracy    <       0.00004560 Ry

     iteration # 21     ecut=    60.00 Ry     beta= 0.30
     Davidson diagonalization with overlap
     ethr =  7.36E-08,  avg # of iterations =  1.8

     total cpu time spent up to now is      166.1 secs

     total energy              =   -1067.66260385 Ry
     estimated scf accuracy    <       0.00008428 Ry

     iteration # 22     ecut=    60.00 Ry     beta= 0.30
     Davidson diagonalization with overlap
     ethr =  7.36E-08,  avg # of iterations =  1.0

     total cpu time spent up to now is      171.1 secs

     total energy              =   -1067.66260445 Ry
     estimated scf accuracy    <       0.00001333 Ry

     iteration # 23     ecut=    60.00 Ry     beta= 0.30
     Davidson diagonalization with overlap
     ethr =  2.15E-08,  avg # of iterations =  1.6

     total cpu time spent up to now is      178.6 secs

     total energy              =   -1067.66260482 Ry
     estimated scf accuracy    <       0.00000532 Ry

     iteration # 24     ecut=    60.00 Ry     beta= 0.30
     Davidson diagonalization with overlap
     ethr =  8.59E-09,  avg # of iterations =  2.8

     total cpu time spent up to now is      188.5 secs

     total energy              =   -1067.66260526 Ry
     estimated scf accuracy    <       0.00000030 Ry

     iteration # 25     ecut=    60.00 Ry     beta= 0.30
     Davidson diagonalization with overlap
     ethr =  4.85E-10,  avg # of iterations =  5.1

     total cpu time spent up to now is      201.1 secs

     total energy              =   -1067.66260568 Ry
     estimated scf accuracy    <       0.00000387 Ry

     iteration # 26     ecut=    60.00 Ry     beta= 0.30
     Davidson diagonalization with overlap
     ethr =  4.85E-10,  avg # of iterations =  1.0

     total cpu time spent up to now is      206.2 secs

     total energy              =   -1067.66260565 Ry
     estimated scf accuracy    <       0.00000135 Ry

     iteration # 27     ecut=    60.00 Ry     beta= 0.30
     Davidson diagonalization with overlap
     ethr =  4.85E-10,  avg # of iterations =  1.4

     total cpu time spent up to now is      212.6 secs

     total energy              =   -1067.66260565 Ry
     estimated scf accuracy    <       0.00000014 Ry

     iteration # 28     ecut=    60.00 Ry     beta= 0.30
     Davidson diagonalization with overlap
     ethr =  2.21E-10,  avg # of iterations =  2.9

     total cpu time spent up to now is      220.8 secs

     total energy              =   -1067.66260567 Ry
     estimated scf accuracy    <       0.00000004 Ry

     iteration # 29     ecut=    60.00 Ry     beta= 0.30
     Davidson diagonalization with overlap
     ethr =  6.15E-11,  avg # of iterations =  2.7

     total cpu time spent up to now is      230.6 secs

     total energy              =   -1067.66260567 Ry
     estimated scf accuracy    <       0.00000002 Ry

     iteration # 30     ecut=    60.00 Ry     beta= 0.30
     Davidson diagonalization with overlap
     ethr =  2.94E-11,  avg # of iterations =  3.3

     total cpu time spent up to now is      241.3 secs

     End of self-consistent calculation

     Number of k-points >= 100: set verbosity='high' to print the bands.

     the Fermi energy is     3.8179 ev

!    total energy              =   -1067.66260567 Ry
     estimated scf accuracy    <          1.2E-10 Ry
     smearing contrib. (-TS)   =       0.00215034 Ry
     internal energy E=F+TS    =   -1067.66475601 Ry

     The total energy is F=E-TS. E is the sum of the following terms:
     one-electron contribution =    -735.47569705 Ry
     hartree contribution      =     383.15303391 Ry
     xc contribution           =     -87.07395837 Ry
     ewald contribution        =    -189.86634050 Ry
     DFT-D3 Dispersion         =      -0.30628950 Ry
     one-center paw contrib.   =    -438.09550450 Ry

     convergence has been achieved in  30 iterations

     Forces acting on atoms (cartesian axes, Ry/au):

     atom    1 type  1   force =    -0.00056074   -0.00032381   -0.00318752
     atom    2 type  2   force =    -0.00855053    0.00462723   -0.01519142
     atom    3 type  2   force =    -0.00874521   -0.00504904    0.01589878
     atom    4 type  2   force =    -0.00742213    0.00451182    0.01387669
     atom    5 type  2   force =    -0.00075179   -0.00043404    0.00266981
     atom    6 type  2   force =    -0.00026798   -0.00971857   -0.01519143
     atom    7 type  2   force =    -0.00000771   -0.00000444   -0.00113393
     atom    8 type  2   force =     0.00019628   -0.00868364    0.01387670
     atom    9 type  2   force =     0.00742192   -0.00451194   -0.01387701
     atom   10 type  2   force =     0.00874495    0.00504891   -0.01589893
     atom   11 type  2   force =     0.00855036   -0.00462737    0.01519128
     atom   12 type  1   force =     0.00056222    0.00032451    0.00318902
     atom   13 type  2   force =    -0.00019650    0.00868356   -0.01387701
     atom   14 type  2   force =     0.00000751    0.00000434    0.00113374
     atom   15 type  2   force =     0.00026775    0.00971853    0.01519128
     atom   16 type  2   force =     0.00075159    0.00043394   -0.00267005

     Total force =     0.055877     Total SCF correction =     0.000018


     Computing stress (Cartesian axis) and pressure

          total   stress  (Ry/bohr**3)                   (kbar)     P=      -67.34
  -0.00044334   0.00000557   0.00000607          -65.22        0.82        0.89
   0.00000557  -0.00044977   0.00000350            0.82      -66.16        0.52
   0.00000607   0.00000350  -0.00048013            0.89        0.52      -70.63


     BFGS Geometry Optimization
     Energy error            =      4.9E-02 Ry
     Gradient error          =      1.6E-02 Ry/Bohr
     Cell gradient error     =      7.1E+01 kbar

     number of scf cycles    =   1
     number of bfgs steps    =   0

     enthalpy           new  =   -1067.6626056701 Ry

     new trust radius        =       0.1199092719 bohr
     new conv_thr            =       0.0000000010 Ry

     new unit-cell volume =   2409.67790 a.u.^3 (   357.07742 Ang^3 )
     density =      2.13050 g/cm^3

CELL_PARAMETERS (angstrom)
   6.329065027   0.000890492   0.000970406
  -3.163761325   5.479795363   0.000000009
   0.001579943   0.000912197  10.294926056

ATOMIC_POSITIONS (angstrom)
Co               0.0001608338        1.8266912787        1.2853609203
Mg               1.5785117959        0.9163578912        3.8529778083
Mg              -0.0033310404        1.8246752933        6.4428018745
Mg               1.5798945937        0.9167550336        9.0156384683
Mg              -1.5818193442        4.5665315406        1.2884232610
Mg               0.0009644343        3.6487500727        3.8529778107
Mg              -1.5806402623        4.5672122990        6.4338976783
Mg               0.0019997641        3.6497490517        9.0156384762
Mg               3.1688696042        1.8249452771        1.2802578310
Mg               4.7520952137        0.9170250098        3.8530945168
Mg               3.1702524233        1.8253424058        6.4429185837
Co               4.7486042488        0.9150094556        9.0105363339
Mg               1.5830031016        4.5717466370        1.2802578344
Mg               3.1656431380        3.6542833849        3.8619986981
Mg               1.5840384314        4.5727456423        6.4429185902
Mg               3.1668222227        3.6549641384        9.0074730875



     Writing config-only to output data dir ./outdir/mgco.save/ :
     XML data file
     NEW-OLD atomic charge density approx. for the potential
     New effective cutoffs (rho, wfc):  491.56   61.47

     Check: negative core charge=   -0.000001

     total cpu time spent up to now is      247.1 secs

     Self-consistent Calculation

     iteration #  1     ecut=    60.00 Ry     beta= 0.30
     Davidson diagonalization with overlap
     ethr =  1.00E-06,  avg # of iterations =  6.5

     total cpu time spent up to now is      264.5 secs

     total energy              =   -1067.61967744 Ry
     estimated scf accuracy    <       0.17613896 Ry

     iteration #  2     ecut=    60.00 Ry     beta= 0.30
     Davidson diagonalization with overlap
     ethr =  2.84E-04,  avg # of iterations =  3.4

     total cpu time spent up to now is      274.1 secs

     total energy              =   -1067.54898593 Ry
     estimated scf accuracy    <       5.81959015 Ry

     iteration #  3     ecut=    60.00 Ry     beta= 0.30
     Davidson diagonalization with overlap
     ethr =  2.84E-04,  avg # of iterations =  3.3

     total cpu time spent up to now is      282.8 secs

     total energy              =   -1067.69968478 Ry
     estimated scf accuracy    <       0.13229142 Ry

     iteration #  4     ecut=    60.00 Ry     beta= 0.30
     Davidson diagonalization with overlap
     ethr =  2.13E-04,  avg # of iterations =  1.0

     total cpu time spent up to now is      287.8 secs

     total energy              =   -1067.70193230 Ry
     estimated scf accuracy    <       0.00992731 Ry

     iteration #  5     ecut=    60.00 Ry     beta= 0.30
     Davidson diagonalization with overlap
     ethr =  1.60E-05,  avg # of iterations =  2.7

     total cpu time spent up to now is      299.5 secs

     total energy              =   -1067.70191662 Ry
     estimated scf accuracy    <       0.00590090 Ry

     iteration #  6     ecut=    60.00 Ry     beta= 0.30
     Davidson diagonalization with overlap
     ethr =  9.52E-06,  avg # of iterations =  2.5

     total cpu time spent up to now is      307.6 secs

     total energy              =   -1067.70234601 Ry
     estimated scf accuracy    <       0.00102499 Ry

     iteration #  7     ecut=    60.00 Ry     beta= 0.30
     Davidson diagonalization with overlap
     ethr =  1.65E-06,  avg # of iterations =  4.0

     total cpu time spent up to now is      319.3 secs

     total energy              =   -1067.70238335 Ry
     estimated scf accuracy    <       0.00288558 Ry

     iteration #  8     ecut=    60.00 Ry     beta= 0.30
     Davidson diagonalization with overlap
     ethr =  1.65E-06,  avg # of iterations =  1.0

     total cpu time spent up to now is      324.3 secs

     total energy              =   -1067.70235237 Ry
     estimated scf accuracy    <       0.00078072 Ry

     iteration #  9     ecut=    60.00 Ry     beta= 0.30
     Davidson diagonalization with overlap
     ethr =  1.26E-06,  avg # of iterations =  1.1

     total cpu time spent up to now is      329.7 secs

     total energy              =   -1067.70238913 Ry
     estimated scf accuracy    <       0.00011576 Ry

     iteration # 10     ecut=    60.00 Ry     beta= 0.30
     Davidson diagonalization with overlap
     ethr =  1.87E-07,  avg # of iterations =  2.1

     total cpu time spent up to now is      337.3 secs

     total energy              =   -1067.70239242 Ry
     estimated scf accuracy    <       0.00005166 Ry

     iteration # 11     ecut=    60.00 Ry     beta= 0.30
     Davidson diagonalization with overlap
     ethr =  8.33E-08,  avg # of iterations =  1.1

     total cpu time spent up to now is      343.1 secs

     total energy              =   -1067.70239424 Ry
     estimated scf accuracy    <       0.00000047 Ry

     iteration # 12     ecut=    60.00 Ry     beta= 0.30
     Davidson diagonalization with overlap
     ethr =  7.57E-10,  avg # of iterations =  5.6

     total cpu time spent up to now is      357.1 secs

     total energy              =   -1067.70239645 Ry
     estimated scf accuracy    <       0.00000054 Ry

     iteration # 13     ecut=    60.00 Ry     beta= 0.30
     Davidson diagonalization with overlap
     ethr =  7.57E-10,  avg # of iterations =  1.0

     total cpu time spent up to now is      362.1 secs

     total energy              =   -1067.70239644 Ry
     estimated scf accuracy    <       0.00000048 Ry

     iteration # 14     ecut=    60.00 Ry     beta= 0.30
     Davidson diagonalization with overlap
     ethr =  7.57E-10,  avg # of iterations =  1.0

     total cpu time spent up to now is      367.1 secs

     total energy              =   -1067.70239644 Ry
     estimated scf accuracy    <       0.00000009 Ry

     iteration # 15     ecut=    60.00 Ry     beta= 0.30
     Davidson diagonalization with overlap
     ethr =  1.42E-10,  avg # of iterations =  1.7

     total cpu time spent up to now is      374.5 secs

     total energy              =   -1067.70239645 Ry
     estimated scf accuracy    <       0.00000003 Ry

     iteration # 16     ecut=    60.00 Ry     beta= 0.30
     Davidson diagonalization with overlap
     ethr =  5.11E-11,  avg # of iterations =  1.8

     total cpu time spent up to now is      381.1 secs

     End of self-consistent calculation

     Number of k-points >= 100: set verbosity='high' to print the bands.

     the Fermi energy is     4.0441 ev

!    total energy              =   -1067.70239645 Ry
     estimated scf accuracy    <          6.8E-11 Ry
     smearing contrib. (-TS)   =       0.00196336 Ry
     internal energy E=F+TS    =   -1067.70435981 Ry

     The total energy is F=E-TS. E is the sum of the following terms:
     one-electron contribution =    -732.50960721 Ry
     hartree contribution      =     382.22149086 Ry
     xc contribution           =     -87.23759382 Ry
     ewald contribution        =    -191.72588941 Ry
     DFT-D3 Dispersion         =      -0.31640274 Ry
     one-center paw contrib.   =    -438.13635749 Ry

     convergence has been achieved in  16 iterations

     Forces acting on atoms (cartesian axes, Ry/au):

     atom    1 type  1   force =    -0.00094616   -0.00054622   -0.00344651
     atom    2 type  2   force =    -0.00822823    0.00471068   -0.01518732
     atom    3 type  2   force =    -0.00853424   -0.00492725    0.01603221
     atom    4 type  2   force =    -0.00780184    0.00436614    0.01421013
     atom    5 type  2   force =    -0.00079365   -0.00045821    0.00255319
     atom    6 type  2   force =    -0.00003454   -0.00948119   -0.01518731
     atom    7 type  2   force =     0.00023348    0.00013480   -0.00124213
     atom    8 type  2   force =    -0.00011973   -0.00893967    0.01421013
     atom    9 type  2   force =     0.00780163   -0.00436615   -0.01420921
     atom   10 type  2   force =     0.00853417    0.00492720   -0.01603186
     atom   11 type  2   force =     0.00822800   -0.00471072    0.01518765
     atom   12 type  1   force =     0.00094725    0.00054688    0.00344240
     atom   13 type  2   force =     0.00011962    0.00893949   -0.01420922
     atom   14 type  2   force =    -0.00023365   -0.00013490    0.00124260
     atom   15 type  2   force =     0.00003440    0.00948101    0.01518765
     atom   16 type  2   force =     0.00079348    0.00045811   -0.00255241

     Total force =     0.056231     Total SCF correction =     0.000014


     Computing stress (Cartesian axis) and pressure

          total   stress  (Ry/bohr**3)                   (kbar)     P=      -59.60
  -0.00038976   0.00000569   0.00000662          -57.34        0.84        0.97
   0.00000569  -0.00039634   0.00000382            0.84      -58.30        0.56
   0.00000662   0.00000382  -0.00042926            0.97        0.56      -63.15

     Energy error            =      4.0E-02 Ry
     Gradient error          =      1.6E-02 Ry/Bohr
     Cell gradient error     =      6.3E+01 kbar

     number of scf cycles    =   2
     number of bfgs steps    =   1

     enthalpy           old  =   -1067.6626056701 Ry
     enthalpy           new  =   -1067.7023964492 Ry

     CASE: enthalpy          _new < enthalpy          _old


     WARNING: bfgs curvature condition failed, Theta= 0.915
     new trust radius        =       0.1789339413 bohr
     new conv_thr            =       0.0000000010 Ry

     new unit-cell volume =   2287.45080 a.u.^3 (   338.96524 Ang^3 )
     density =      2.24434 g/cm^3

CELL_PARAMETERS (angstrom)
   6.224310175   0.002406742   0.002722959
  -3.110070788   5.386800639   0.000000015
   0.004433370   0.002559636  10.107324294

ATOMIC_POSITIONS (angstrom)
Co               0.0001795117        1.7957038501        1.2593001523
Mg               1.5465653098        0.9059758342        3.7703232629
Mg              -0.0083933856        1.7907543132        6.3394251589
Mg               1.5498169026        0.9069340626        8.8640947591
Mg              -1.5548510439        4.4891069719        1.2674403342
Mg               0.0028453317        3.5797772831        3.7703232714
Mg              -1.5513963182        4.4911015797        6.3158942059
Mg               0.0053009635        3.5821141466        8.8640947723
Mg               3.1238909595        1.7914325555        1.2459530057
Mg               4.6821013271        0.9076122708        3.7706222793
Mg               3.1271425672        1.7923907522        6.3397241664
Co               4.6735303694        0.9026637714        8.8507448846
Mg               1.5583361769        4.5030529993        1.2459530101
Mg               3.1150334306        3.5940656263        3.7941533118
Mg               1.5607917930        4.5053898942        6.3397241733
Mg               3.1184881571        3.5960602252        8.8426073929



     Writing config-only to output data dir ./outdir/mgco.save/ :
     XML data file
     NEW-OLD atomic charge density approx. for the potential
     New effective cutoffs (rho, wfc):  510.04   63.77

     Check: negative core charge=   -0.000001

     total cpu time spent up to now is      386.9 secs

     Self-consistent Calculation

     iteration #  1     ecut=    60.00 Ry     beta= 0.30
     Davidson diagonalization with overlap
     ethr =  1.00E-06,  avg # of iterations =  8.0

     total cpu time spent up to now is      408.2 secs

     total energy              =   -1067.58130036 Ry
     estimated scf accuracy    <       0.36284875 Ry

     iteration #  2     ecut=    60.00 Ry     beta= 0.30
     Davidson diagonalization with overlap
     ethr =  5.85E-04,  avg # of iterations =  3.3

     total cpu time spent up to now is      417.5 secs

     total energy              =   -1067.53494835 Ry
     estimated scf accuracy    <       7.98811416 Ry

     iteration #  3     ecut=    60.00 Ry     beta= 0.30
     Davidson diagonalization with overlap
     ethr =  5.85E-04,  avg # of iterations =  3.2

     total cpu time spent up to now is      426.1 secs

     total energy              =   -1067.74407848 Ry
     estimated scf accuracy    <       0.39461906 Ry

     iteration #  4     ecut=    60.00 Ry     beta= 0.30
     Davidson diagonalization with overlap
     ethr =  5.85E-04,  avg # of iterations =  1.0

     total cpu time spent up to now is      431.1 secs

     total energy              =   -1067.74960774 Ry
     estimated scf accuracy    <       0.04289166 Ry

     iteration #  5     ecut=    60.00 Ry     beta= 0.30
     Davidson diagonalization with overlap
     ethr =  6.92E-05,  avg # of iterations =  1.7

     total cpu time spent up to now is      439.1 secs

     total energy              =   -1067.75015082 Ry
     estimated scf accuracy    <       0.01842515 Ry

     iteration #  6     ecut=    60.00 Ry     beta= 0.30
     Davidson diagonalization with overlap
     ethr =  2.97E-05,  avg # of iterations =  3.3

     total cpu time spent up to now is      450.9 secs

     total energy              =   -1067.75092727 Ry
     estimated scf accuracy    <       0.00138605 Ry

     iteration #  7     ecut=    60.00 Ry     beta= 0.30
     Davidson diagonalization with overlap
     ethr =  2.24E-06,  avg # of iterations =  5.2

     total cpu time spent up to now is      466.4 secs

     total energy              =   -1067.75109409 Ry
     estimated scf accuracy    <       0.01383194 Ry

     iteration #  8     ecut=    60.00 Ry     beta= 0.30
     Davidson diagonalization with overlap
     ethr =  2.24E-06,  avg # of iterations =  2.4

     total cpu time spent up to now is      474.5 secs

     total energy              =   -1067.75134808 Ry
     estimated scf accuracy    <       0.00025299 Ry

     iteration #  9     ecut=    60.00 Ry     beta= 0.30
     Davidson diagonalization with overlap
     ethr =  4.08E-07,  avg # of iterations =  3.2

     total cpu time spent up to now is      482.7 secs

     total energy              =   -1067.75139399 Ry
     estimated scf accuracy    <       0.00019278 Ry

     iteration # 10     ecut=    60.00 Ry     beta= 0.30
     Davidson diagonalization with overlap
     ethr =  3.11E-07,  avg # of iterations =  1.0

     total cpu time spent up to now is      487.7 secs

     total energy              =   -1067.75138728 Ry
     estimated scf accuracy    <       0.00021266 Ry

     iteration # 11     ecut=    60.00 Ry     beta= 0.30
     Davidson diagonalization with overlap
     ethr =  3.11E-07,  avg # of iterations =  1.0

     total cpu time spent up to now is      492.7 secs

     total energy              =   -1067.75138997 Ry
     estimated scf accuracy    <       0.00001869 Ry

     iteration # 12     ecut=    60.00 Ry     beta= 0.30
     Davidson diagonalization with overlap
     ethr =  3.01E-08,  avg # of iterations =  2.8

     total cpu time spent up to now is      503.4 secs

     total energy              =   -1067.75139135 Ry
     estimated scf accuracy    <       0.00000005 Ry

     iteration # 13     ecut=    60.00 Ry     beta= 0.30
     Davidson diagonalization with overlap
     ethr =  8.54E-11,  avg # of iterations =  7.4

     total cpu time spent up to now is      521.4 secs

     total energy              =   -1067.75139311 Ry
     estimated scf accuracy    <       0.00000006 Ry

     iteration # 14     ecut=    60.00 Ry     beta= 0.30
     Davidson diagonalization with overlap
     ethr =  8.54E-11,  avg # of iterations =  2.1

     total cpu time spent up to now is      530.1 secs

     total energy              =   -1067.75139310 Ry
     estimated scf accuracy    <       0.00000015 Ry

     iteration # 15     ecut=    60.00 Ry     beta= 0.30
     Davidson diagonalization with overlap
     ethr =  8.54E-11,  avg # of iterations =  3.1

     total cpu time spent up to now is      538.0 secs

     total energy              =   -1067.75139309 Ry
     estimated scf accuracy    <       0.00000094 Ry

     iteration # 16     ecut=    60.00 Ry     beta= 0.30
     Davidson diagonalization with overlap
     ethr =  8.54E-11,  avg # of iterations =  3.0

     total cpu time spent up to now is      545.8 secs

     total energy              =   -1067.75139312 Ry
     estimated scf accuracy    <       0.00000003 Ry

     iteration # 17     ecut=    60.00 Ry     beta= 0.30
     Davidson diagonalization with overlap
     ethr =  4.49E-11,  avg # of iterations =  1.0

     total cpu time spent up to now is      550.8 secs

     End of self-consistent calculation

     Number of k-points >= 100: set verbosity='high' to print the bands.

     the Fermi energy is     4.3984 ev

!    total energy              =   -1067.75139313 Ry
     estimated scf accuracy    <          1.5E-10 Ry
     smearing contrib. (-TS)   =       0.00171635 Ry
     internal energy E=F+TS    =   -1067.75310947 Ry

     The total energy is F=E-TS. E is the sum of the following terms:
     one-electron contribution =    -728.14336667 Ry
     hartree contribution      =     380.90248700 Ry
     xc contribution           =     -87.49329942 Ry
     ewald contribution        =    -194.48366819 Ry
     DFT-D3 Dispersion         =      -0.33231406 Ry
     one-center paw contrib.   =    -438.20294814 Ry

     convergence has been achieved in  17 iterations

     Forces acting on atoms (cartesian axes, Ry/au):

     atom    1 type  1   force =    -0.00152462   -0.00088023   -0.00384393
     atom    2 type  2   force =    -0.00729611    0.00469595   -0.01471921
     atom    3 type  2   force =    -0.00782127   -0.00451561    0.01576392
     atom    4 type  2   force =    -0.00822753    0.00388892    0.01438617
     atom    5 type  2   force =    -0.00089275   -0.00051543    0.00232702
     atom    6 type  2   force =     0.00041876   -0.00866659   -0.01471921
     atom    7 type  2   force =     0.00069968    0.00040396   -0.00146080
     atom    8 type  2   force =    -0.00074586   -0.00906971    0.01438617
     atom    9 type  2   force =     0.00822733   -0.00388905   -0.01438495
     atom   10 type  2   force =     0.00782093    0.00451542   -0.01576305
     atom   11 type  2   force =     0.00729598   -0.00469615    0.01472008
     atom   12 type  1   force =     0.00152618    0.00088114    0.00383679
     atom   13 type  2   force =     0.00074565    0.00906960   -0.01438495
     atom   14 type  2   force =    -0.00069990   -0.00040409    0.00146160
     atom   15 type  2   force =    -0.00041900    0.00866658    0.01472008
     atom   16 type  2   force =     0.00089252    0.00051530   -0.00232575

     Total force =     0.055147     Total SCF correction =     0.000021


     Computing stress (Cartesian axis) and pressure

          total   stress  (Ry/bohr**3)                   (kbar)     P=      -45.00
  -0.00029015   0.00000545   0.00000750          -42.68        0.80        1.10
   0.00000545  -0.00029645   0.00000433            0.80      -43.61        0.64
   0.00000750   0.00000433  -0.00033102            1.10        0.64      -48.69

     Energy error            =      4.9E-02 Ry
     Gradient error          =      1.6E-02 Ry/Bohr
     Cell gradient error     =      4.9E+01 kbar

     number of scf cycles    =   3
     number of bfgs steps    =   2

     enthalpy           old  =   -1067.7023964492 Ry
     enthalpy           new  =   -1067.7513931264 Ry

     CASE: enthalpy          _new < enthalpy          _old

     new trust radius        =       0.2663620170 bohr
     new conv_thr            =       0.0000000010 Ry

     new unit-cell volume =   2114.08670 a.u.^3 (   313.27533 Ang^3 )
     density =      2.42839 g/cm^3

CELL_PARAMETERS (angstrom)
   6.070410989   0.005012911   0.006082655
  -3.030864186   5.249610788   0.000000018
   0.009904435   0.005718361   9.825950366

ATOMIC_POSITIONS (angstrom)
Co              -0.0002781588        1.7497096788        1.2193737196
Mg               1.4993587661        0.8919462868        3.6444802819
Mg              -0.0159603013        1.7406556055        6.1869203066
Mg               1.5048324721        0.8936145002        8.6395935797
Mg              -1.5150515836        4.3748953497        1.2363034887
Mg               0.0066954145        3.4773150705        3.6444802938
Mg              -1.5068680662        4.3796201288        6.1386130273
Mg               0.0108769663        3.4812213496        8.6395935952
Mg               3.0600502753        1.7419219394        1.1924413991
Mg               4.5808430445        0.8948807297        3.6451138333
Mg               3.0655240640        1.7435900433        6.1875538528
Co               4.5651653036        0.8858291088        8.6126490335
Mg               1.5231416829        4.4039257334        1.1924414020
Mg               3.0408866671        3.5055270264        3.6934211681
Mg               1.5273231839        4.4078321411        6.1875538592
Mg               3.0490701685        3.5102517862        8.5957314632



     Writing config-only to output data dir ./outdir/mgco.save/ :
     XML data file
     NEW-OLD atomic charge density approx. for the potential
     New effective cutoffs (rho, wfc):  539.79   67.49

     Check: negative core charge=   -0.000001

     total cpu time spent up to now is      556.7 secs

     Self-consistent Calculation

     iteration #  1     ecut=    60.00 Ry     beta= 0.30
     Davidson diagonalization with overlap
     ethr =  1.00E-06,  avg # of iterations =  9.5

     total cpu time spent up to now is      582.7 secs

     total energy              =   -1067.47060145 Ry
     estimated scf accuracy    <       0.67785846 Ry

     iteration #  2     ecut=    60.00 Ry     beta= 0.30
     Davidson diagonalization with overlap
     ethr =  1.09E-03,  avg # of iterations =  3.1

     total cpu time spent up to now is      591.4 secs

     total energy              =   -1067.50195678 Ry
     estimated scf accuracy    <      10.24045931 Ry

     iteration #  3     ecut=    60.00 Ry     beta= 0.30
     Davidson diagonalization with overlap
     ethr =  1.09E-03,  avg # of iterations =  2.9

     total cpu time spent up to now is      599.8 secs

     total energy              =   -1067.77185226 Ry
     estimated scf accuracy    <       0.83286248 Ry

     iteration #  4     ecut=    60.00 Ry     beta= 0.30
     Davidson diagonalization with overlap
     ethr =  1.09E-03,  avg # of iterations =  1.0

     total cpu time spent up to now is      604.8 secs

     total energy              =   -1067.78152656 Ry
     estimated scf accuracy    <       0.13041091 Ry

     iteration #  5     ecut=    60.00 Ry     beta= 0.30
     Davidson diagonalization with overlap
     ethr =  2.10E-04,  avg # of iterations =  1.0

     total cpu time spent up to now is      609.9 secs

     total energy              =   -1067.78097714 Ry
     estimated scf accuracy    <       0.03606046 Ry

     iteration #  6     ecut=    60.00 Ry     beta= 0.30
     Davidson diagonalization with overlap
     ethr =  5.82E-05,  avg # of iterations =  4.2

     total cpu time spent up to now is      622.1 secs

     total energy              =   -1067.78820440 Ry
     estimated scf accuracy    <       0.08862892 Ry

     iteration #  7     ecut=    60.00 Ry     beta= 0.30
     Davidson diagonalization with overlap
     ethr =  5.82E-05,  avg # of iterations =  1.0

     total cpu time spent up to now is      627.1 secs

     total energy              =   -1067.78647120 Ry
     estimated scf accuracy    <       0.05831277 Ry

     iteration #  8     ecut=    60.00 Ry     beta= 0.30
     Davidson diagonalization with overlap
     ethr =  5.82E-05,  avg # of iterations =  1.0

     total cpu time spent up to now is      632.1 secs

     total energy              =   -1067.78672296 Ry
     estimated scf accuracy    <       0.00909197 Ry

     iteration #  9     ecut=    60.00 Ry     beta= 0.30
     Davidson diagonalization with overlap
     ethr =  1.47E-05,  avg # of iterations =  1.0

     total cpu time spent up to now is      637.3 secs

     total energy              =   -1067.78682129 Ry
     estimated scf accuracy    <       0.00123302 Ry

     iteration # 10     ecut=    60.00 Ry     beta= 0.30
     Davidson diagonalization with overlap
     ethr =  1.99E-06,  avg # of iterations =  4.1

     total cpu time spent up to now is      650.5 secs

     total energy              =   -1067.78700731 Ry
     estimated scf accuracy    <       0.00047480 Ry

     iteration # 11     ecut=    60.00 Ry     beta= 0.30
     Davidson diagonalization with overlap
     ethr =  7.66E-07,  avg # of iterations =  1.7

     total cpu time spent up to now is      657.6 secs

     total energy              =   -1067.78686681 Ry
     estimated scf accuracy    <       0.00217545 Ry

     iteration # 12     ecut=    60.00 Ry     beta= 0.30
     Davidson diagonalization with overlap
     ethr =  7.66E-07,  avg # of iterations =  1.9

     total cpu time spent up to now is      665.2 secs

     total energy              =   -1067.78696035 Ry
     estimated scf accuracy    <       0.00015055 Ry

     iteration # 13     ecut=    60.00 Ry     beta= 0.30
     Davidson diagonalization with overlap
     ethr =  2.43E-07,  avg # of iterations =  1.7

     total cpu time spent up to now is      672.9 secs

     total energy              =   -1067.78697056 Ry
     estimated scf accuracy    <       0.00000267 Ry

     iteration # 14     ecut=    60.00 Ry     beta= 0.30
     Davidson diagonalization with overlap
     ethr =  4.30E-09,  avg # of iterations =  5.1

     total cpu time spent up to now is      685.3 secs

     total energy              =   -1067.78697558 Ry
     estimated scf accuracy    <       0.00002027 Ry

     iteration # 15     ecut=    60.00 Ry     beta= 0.30
     Davidson diagonalization with overlap
     ethr =  4.30E-09,  avg # of iterations =  3.2

     total cpu time spent up to now is      693.8 secs

     total energy              =   -1067.78697639 Ry
     estimated scf accuracy    <       0.00001941 Ry

     iteration # 16     ecut=    60.00 Ry     beta= 0.30
     Davidson diagonalization with overlap
     ethr =  4.30E-09,  avg # of iterations =  2.6

     total cpu time spent up to now is      701.4 secs

     total energy              =   -1067.78697714 Ry
     estimated scf accuracy    <       0.00000100 Ry

     iteration # 17     ecut=    60.00 Ry     beta= 0.30
     Davidson diagonalization with overlap
     ethr =  1.61E-09,  avg # of iterations =  1.1

     total cpu time spent up to now is      706.9 secs

     total energy              =   -1067.78697712 Ry
     estimated scf accuracy    <       0.00000052 Ry

     iteration # 18     ecut=    60.00 Ry     beta= 0.30
     Davidson diagonalization with overlap
     ethr =  8.41E-10,  avg # of iterations =  1.0

     total cpu time spent up to now is      711.9 secs

     total energy              =   -1067.78697713 Ry
     estimated scf accuracy    <       0.00000001 Ry

     iteration # 19     ecut=    60.00 Ry     beta= 0.30
     Davidson diagonalization with overlap
     ethr =  1.85E-11,  avg # of iterations =  4.3

     total cpu time spent up to now is      723.1 secs

     total energy              =   -1067.78697714 Ry
     estimated scf accuracy    <       0.00000004 Ry

     iteration # 20     ecut=    60.00 Ry     beta= 0.30
     Davidson diagonalization with overlap
     ethr =  1.85E-11,  avg # of iterations =  1.0

     total cpu time spent up to now is      728.2 secs

     total energy              =   -1067.78697714 Ry
     estimated scf accuracy    <       0.00000005 Ry

     iteration # 21     ecut=    60.00 Ry     beta= 0.30
     Davidson diagonalization with overlap
     ethr =  1.85E-11,  avg # of iterations =  1.0

     total cpu time spent up to now is      733.2 secs

     total energy              =   -1067.78697714 Ry
     estimated scf accuracy    <       0.00000001 Ry

     iteration # 22     ecut=    60.00 Ry     beta= 0.30
     Davidson diagonalization with overlap
     ethr =  1.63E-11,  avg # of iterations =  1.6

     total cpu time spent up to now is      740.4 secs

     End of self-consistent calculation

     Number of k-points >= 100: set verbosity='high' to print the bands.

     the Fermi energy is     4.9669 ev

!    total energy              =   -1067.78697714 Ry
     estimated scf accuracy    <          1.0E-10 Ry
     smearing contrib. (-TS)   =       0.00141913 Ry
     internal energy E=F+TS    =   -1067.78839627 Ry

     The total energy is F=E-TS. E is the sum of the following terms:
     one-electron contribution =    -721.82007136 Ry
     hartree contribution      =     379.13021738 Ry
     xc contribution           =     -87.90290158 Ry
     ewald contribution        =    -198.53097634 Ry
     DFT-D3 Dispersion         =      -0.34872542 Ry
     one-center paw contrib.   =    -438.31593894 Ry

     convergence has been achieved in  22 iterations

     Forces acting on atoms (cartesian axes, Ry/au):

     atom    1 type  1   force =    -0.00224572   -0.00129657   -0.00430417
     atom    2 type  2   force =    -0.00467990    0.00426733   -0.01268072
     atom    3 type  2   force =    -0.00566182   -0.00326886    0.01393223
     atom    4 type  2   force =    -0.00837804    0.00245563    0.01358912
     atom    5 type  2   force =    -0.00114562   -0.00066143    0.00197350
     atom    6 type  2   force =     0.00135566   -0.00618658   -0.01268072
     atom    7 type  2   force =     0.00166907    0.00096364   -0.00204906
     atom    8 type  2   force =    -0.00206238   -0.00848342    0.01358912
     atom    9 type  2   force =     0.00837800   -0.00245565   -0.01359021
     atom   10 type  2   force =     0.00566176    0.00326882   -0.01393273
     atom   11 type  2   force =     0.00467991   -0.00426736    0.01268031
     atom   12 type  1   force =     0.00224591    0.00129668    0.00430896
     atom   13 type  2   force =     0.00206234    0.00848339   -0.01359021
     atom   14 type  2   force =    -0.00166911   -0.00096366    0.00204870
     atom   15 type  2   force =    -0.00135569    0.00618660    0.01268031
     atom   16 type  2   force =     0.00114565    0.00066144   -0.00197443

     Total force =     0.048976     Total SCF correction =     0.000013


     Computing stress (Cartesian axis) and pressure

          total   stress  (Ry/bohr**3)                   (kbar)     P=      -14.13
  -0.00008306   0.00000366   0.00000895          -12.22        0.54        1.32
   0.00000366  -0.00008728   0.00000517            0.54      -12.84        0.76
   0.00000895   0.00000517  -0.00011784            1.32        0.76      -17.33

     Energy error            =      3.6E-02 Ry
     Gradient error          =      1.4E-02 Ry/Bohr
     Cell gradient error     =      1.7E+01 kbar

     number of scf cycles    =   4
     number of bfgs steps    =   3

     enthalpy           old  =   -1067.7513931264 Ry
     enthalpy           new  =   -1067.7869771390 Ry

     CASE: enthalpy          _new < enthalpy          _old

     new trust radius        =       0.1621702122 bohr
     new conv_thr            =       0.0000000010 Ry

     new unit-cell volume =   2014.78742 a.u.^3 (   298.56069 Ang^3 )
     density =      2.54807 g/cm^3

CELL_PARAMETERS (angstrom)
   5.980241971   0.006995274   0.009565311
  -2.984062900   5.168548585   0.000000017
   0.015582219   0.008996431   9.652805678

ATOMIC_POSITIONS (angstrom)
Co              -0.0013820094        1.7220516418        1.1930478025
Mg               1.4710364662        0.8862204354        3.5626836978
Mg              -0.0208924924        1.7107872695        6.0987024809
Mg               1.4766482233        0.8879341218        8.5074836436
Mg              -1.4917121118        4.3073081970        1.2181175100
Mg               0.0109761750        3.4151190643        3.5626837108
Mg              -1.4778566124        4.3153076963        6.0287023394
Mg               0.0152661344        3.4191221608        8.5074836595
Mg               3.0271437831        1.7123315800        1.1548889744
Mg               4.5246844629        0.8894782931        3.5636695435
Mg               3.0327556767        1.7140451221        6.0996883848
Co               4.5051795158        0.8782170261        8.4693138908
Mg               1.5044630768        4.3496919554        1.1548889762
Mg               2.9975857622        3.4535065035        3.6336698487
Mg               1.5087529801        4.3536952448        6.0996883908
Mg               3.0114412892        3.4615060089        8.4442551904



     Writing config-only to output data dir ./outdir/mgco.save/ :
     XML data file
     NEW-OLD atomic charge density approx. for the potential
     New effective cutoffs (rho, wfc):  559.47   69.96

     Check: negative core charge=   -0.000002

     total cpu time spent up to now is      746.3 secs

     Self-consistent Calculation

     iteration #  1     ecut=    60.00 Ry     beta= 0.30
     Davidson diagonalization with overlap
     ethr =  1.00E-06,  avg # of iterations =  7.5

     total cpu time spent up to now is      767.3 secs

     total energy              =   -1067.71863742 Ry
     estimated scf accuracy    <       0.16503601 Ry

     iteration #  2     ecut=    60.00 Ry     beta= 0.30
     Davidson diagonalization with overlap
     ethr =  2.66E-04,  avg # of iterations =  3.3

     total cpu time spent up to now is      776.6 secs

     total energy              =   -1067.65122665 Ry
     estimated scf accuracy    <       4.52776439 Ry

     iteration #  3     ecut=    60.00 Ry     beta= 0.30
     Davidson diagonalization with overlap
     ethr =  2.66E-04,  avg # of iterations =  3.3

     total cpu time spent up to now is      785.4 secs

     total energy              =   -1067.79320252 Ry
     estimated scf accuracy    <       0.05933699 Ry

     iteration #  4     ecut=    60.00 Ry     beta= 0.30
     Davidson diagonalization with overlap
     ethr =  9.57E-05,  avg # of iterations =  1.0

     total cpu time spent up to now is      790.4 secs

     total energy              =   -1067.79423589 Ry
     estimated scf accuracy    <       0.00521229 Ry

     iteration #  5     ecut=    60.00 Ry     beta= 0.30
     Davidson diagonalization with overlap
     ethr =  8.41E-06,  avg # of iterations =  3.4

     total cpu time spent up to now is      800.3 secs

     total energy              =   -1067.79463692 Ry
     estimated scf accuracy    <       0.00278165 Ry

     iteration #  6     ecut=    60.00 Ry     beta= 0.30
     Davidson diagonalization with overlap
     ethr =  4.49E-06,  avg # of iterations =  1.2

     total cpu time spent up to now is      806.0 secs

     total energy              =   -1067.79471823 Ry
     estimated scf accuracy    <       0.00157444 Ry

     iteration #  7     ecut=    60.00 Ry     beta= 0.30
     Davidson diagonalization with overlap
     ethr =  2.54E-06,  avg # of iterations =  1.0

     total cpu time spent up to now is      811.0 secs

     total energy              =   -1067.79473749 Ry
     estimated scf accuracy    <       0.00046834 Ry

     iteration #  8     ecut=    60.00 Ry     beta= 0.30
     Davidson diagonalization with overlap
     ethr =  7.55E-07,  avg # of iterations =  1.6

     total cpu time spent up to now is      818.3 secs

     total energy              =   -1067.79471709 Ry
     estimated scf accuracy    <       0.00046328 Ry

     iteration #  9     ecut=    60.00 Ry     beta= 0.30
     Davidson diagonalization with overlap
     ethr =  7.47E-07,  avg # of iterations =  1.0

     total cpu time spent up to now is      823.2 secs

     total energy              =   -1067.79473366 Ry
     estimated scf accuracy    <       0.00000132 Ry

     iteration # 10     ecut=    60.00 Ry     beta= 0.30
     Davidson diagonalization with overlap
     ethr =  2.14E-09,  avg # of iterations =  6.6

     total cpu time spent up to now is      839.4 secs

     total energy              =   -1067.79474212 Ry
     estimated scf accuracy    <       0.00000097 Ry

     iteration # 11     ecut=    60.00 Ry     beta= 0.30
     Davidson diagonalization with overlap
     ethr =  1.56E-09,  avg # of iterations =  1.1

     total cpu time spent up to now is      845.1 secs

     total energy              =   -1067.79474213 Ry
     estimated scf accuracy    <       0.00000026 Ry

     iteration # 12     ecut=    60.00 Ry     beta= 0.30
     Davidson diagonalization with overlap
     ethr =  4.18E-10,  avg # of iterations =  4.6

     total cpu time spent up to now is      856.9 secs

     total energy              =   -1067.79474216 Ry
     estimated scf accuracy    <       0.00000163 Ry

     iteration # 13     ecut=    60.00 Ry     beta= 0.30
     Davidson diagonalization with overlap
     ethr =  4.18E-10,  avg # of iterations =  1.8

     total cpu time spent up to now is      864.2 secs

     total energy              =   -1067.79474220 Ry
     estimated scf accuracy    <       0.00000005 Ry

     iteration # 14     ecut=    60.00 Ry     beta= 0.30
     Davidson diagonalization with overlap
     ethr =  8.16E-11,  avg # of iterations =  2.5

     total cpu time spent up to now is      872.0 secs

     total energy              =   -1067.79474221 Ry
     estimated scf accuracy    <          1.8E-09 Ry

     iteration # 15     ecut=    60.00 Ry     beta= 0.30
     Davidson diagonalization with overlap
     ethr =  2.94E-12,  avg # of iterations =  5.1

     total cpu time spent up to now is      884.9 secs

     total energy              =   -1067.79474221 Ry
     estimated scf accuracy    <          3.7E-09 Ry

     iteration # 16     ecut=    60.00 Ry     beta= 0.30
     Davidson diagonalization with overlap
     ethr =  2.94E-12,  avg # of iterations =  1.0

     total cpu time spent up to now is      889.8 secs

     End of self-consistent calculation

     Number of k-points >= 100: set verbosity='high' to print the bands.

     the Fermi energy is     5.3345 ev

!    total energy              =   -1067.79474221 Ry
     estimated scf accuracy    <          1.5E-10 Ry
     smearing contrib. (-TS)   =       0.00126655 Ry
     internal energy E=F+TS    =   -1067.79600876 Ry

     The total energy is F=E-TS. E is the sum of the following terms:
     one-electron contribution =    -718.68181743 Ry
     hartree contribution      =     378.45936394 Ry
     xc contribution           =     -88.16825488 Ry
     ewald contribution        =    -200.64780616 Ry
     DFT-D3 Dispersion         =      -0.36503665 Ry
     one-center paw contrib.   =    -438.39245759 Ry

     convergence has been achieved in  16 iterations

     Forces acting on atoms (cartesian axes, Ry/au):

     atom    1 type  1   force =    -0.00246956   -0.00142579   -0.00429750
     atom    2 type  2   force =    -0.00175191    0.00341068   -0.00990837
     atom    3 type  2   force =    -0.00312233   -0.00180268    0.01104719
     atom    4 type  2   force =    -0.00778140    0.00072201    0.01169304
     atom    5 type  2   force =    -0.00136450   -0.00078780    0.00170111
     atom    6 type  2   force =     0.00207778   -0.00322254   -0.00990837
     atom    7 type  2   force =     0.00241047    0.00139168   -0.00249840
     atom    8 type  2   force =    -0.00326542   -0.00709990    0.01169304
     atom    9 type  2   force =     0.00778143   -0.00072206   -0.01169305
     atom   10 type  2   force =     0.00312229    0.00180265   -0.01104711
     atom   11 type  2   force =     0.00175180   -0.00341073    0.00990855
     atom   12 type  1   force =     0.00247000    0.00142607    0.00429659
     atom   13 type  2   force =     0.00326539    0.00709995   -0.01169305
     atom   14 type  2   force =    -0.00241059   -0.00139175    0.00249867
     atom   15 type  2   force =    -0.00207788    0.00322247    0.00990856
     atom   16 type  2   force =     0.00136443    0.00078775   -0.00170090

     Total force =     0.040059     Total SCF correction =     0.000014


     Computing stress (Cartesian axis) and pressure

          total   stress  (Ry/bohr**3)                   (kbar)     P=       10.30
   0.00007795   0.00000085   0.00000979           11.47        0.12        1.44
   0.00000085   0.00007697   0.00000565            0.12       11.32        0.83
   0.00000979   0.00000565   0.00005504            1.44        0.83        8.10

     Energy error            =      7.8E-03 Ry
     Gradient error          =      1.2E-02 Ry/Bohr
     Cell gradient error     =      1.1E+01 kbar

     number of scf cycles    =   5
     number of bfgs steps    =   4

     enthalpy           old  =   -1067.7869771390 Ry
     enthalpy           new  =   -1067.7947422130 Ry

     CASE: enthalpy          _new < enthalpy          _old

     new trust radius        =       0.0172627190 bohr
     new conv_thr            =       0.0000000010 Ry

     new unit-cell volume =   2025.42885 a.u.^3 (   300.13759 Ang^3 )
     density =      2.53468 g/cm^3

CELL_PARAMETERS (angstrom)
   5.991676847   0.007072771   0.010802054
  -2.989713224   5.178335233   0.000000016
   0.017607151   0.010165523   9.666914216

ATOMIC_POSITIONS (angstrom)
Co              -0.0021899144        1.7248474137        1.1931895080
Mg               1.4739085218        0.8897642573        3.5642228554
Mg              -0.0209071495        1.7140410216        6.1123556400
Mg               1.4779570976        0.8909212920        8.5251552572
Mg              -1.4948502204        4.3152830568        1.2207984988
Mg               0.0126560816        3.4207277483        3.5642228677
Mg              -1.4783467308        4.3248113725        6.0366676811
Mg               0.0156823780        3.4236554139        8.5251552722
Mg               3.0364695691        1.7154842991        1.1525625605
Mg               4.5353337498        0.8923644450        3.5653616562
Mg               3.0405182253        1.7166411931        6.1134945484
Co               4.5166222357        0.8815612683        8.4845174733
Mg               1.5090311432        4.3610852862        1.1525625620
Mg               3.0030601546        3.4599293598        3.6410498594
Mg               1.5120573572        4.3640130944        6.1134945541
Mg               3.0195636933        3.4694576945        8.4569194986



     Writing config-only to output data dir ./outdir/mgco.save/ :
     XML data file
     NEW-OLD atomic charge density approx. for the potential
     New effective cutoffs (rho, wfc):  557.91   69.76

     Check: negative core charge=   -0.000002

     total cpu time spent up to now is      895.8 secs

     Self-consistent Calculation

     iteration #  1     ecut=    60.00 Ry     beta= 0.30
     Davidson diagonalization with overlap
     ethr =  1.00E-06,  avg # of iterations =  3.6

     total cpu time spent up to now is      906.8 secs

     total energy              =   -1067.79443822 Ry
     estimated scf accuracy    <       0.00473685 Ry

     iteration #  2     ecut=    60.00 Ry     beta= 0.30
     Davidson diagonalization with overlap
     ethr =  7.64E-06,  avg # of iterations =  3.9

     total cpu time spent up to now is      916.9 secs

     total energy              =   -1067.78391807 Ry
     estimated scf accuracy    <       0.47797546 Ry

     iteration #  3     ecut=    60.00 Ry     beta= 0.30
     Davidson diagonalization with overlap
     ethr =  7.64E-06,  avg # of iterations =  3.8

     total cpu time spent up to now is      927.0 secs

     total energy              =   -1067.79661188 Ry
     estimated scf accuracy    <       0.00008466 Ry

     iteration #  4     ecut=    60.00 Ry     beta= 0.30
     Davidson diagonalization with overlap
     ethr =  1.37E-07,  avg # of iterations =  2.6

     total cpu time spent up to now is      935.3 secs

     total energy              =   -1067.79661634 Ry
     estimated scf accuracy    <       0.00016156 Ry

     iteration #  5     ecut=    60.00 Ry     beta= 0.30
     Davidson diagonalization with overlap
     ethr =  1.37E-07,  avg # of iterations =  1.1

     total cpu time spent up to now is      940.8 secs

     total energy              =   -1067.79662068 Ry
     estimated scf accuracy    <       0.00003826 Ry

     iteration #  6     ecut=    60.00 Ry     beta= 0.30
     Davidson diagonalization with overlap
     ethr =  6.17E-08,  avg # of iterations =  1.1

     total cpu time spent up to now is      946.0 secs

     total energy              =   -1067.79662218 Ry
     estimated scf accuracy    <       0.00000058 Ry

     iteration #  7     ecut=    60.00 Ry     beta= 0.30
     Davidson diagonalization with overlap
     ethr =  9.28E-10,  avg # of iterations =  5.3

     total cpu time spent up to now is      958.8 secs

     total energy              =   -1067.79662304 Ry
     estimated scf accuracy    <       0.00000102 Ry

     iteration #  8     ecut=    60.00 Ry     beta= 0.30
     Davidson diagonalization with overlap
     ethr =  9.28E-10,  avg # of iterations =  1.2

     total cpu time spent up to now is      964.4 secs

     total energy              =   -1067.79662307 Ry
     estimated scf accuracy    <       0.00000010 Ry

     iteration #  9     ecut=    60.00 Ry     beta= 0.30
     Davidson diagonalization with overlap
     ethr =  1.63E-10,  avg # of iterations =  2.8

     total cpu time spent up to now is      972.9 secs

     total energy              =   -1067.79662309 Ry
     estimated scf accuracy    <       0.00000007 Ry

     iteration # 10     ecut=    60.00 Ry     beta= 0.30
     Davidson diagonalization with overlap
     ethr =  1.05E-10,  avg # of iterations =  1.0

     total cpu time spent up to now is      977.9 secs

     total energy              =   -1067.79662309 Ry
     estimated scf accuracy    <          1.5E-09 Ry

     iteration # 11     ecut=    60.00 Ry     beta= 0.30
     Davidson diagonalization with overlap
     ethr =  2.37E-12,  avg # of iterations =  4.2

     total cpu time spent up to now is      989.1 secs

     total energy              =   -1067.79662309 Ry
     estimated scf accuracy    <          1.8E-09 Ry

     iteration # 12     ecut=    60.00 Ry     beta= 0.30
     Davidson diagonalization with overlap
     ethr =  2.37E-12,  avg # of iterations =  1.0

     total cpu time spent up to now is      994.1 secs

     End of self-consistent calculation

     Number of k-points >= 100: set verbosity='high' to print the bands.

     the Fermi energy is     5.2939 ev

!    total energy              =   -1067.79662309 Ry
     estimated scf accuracy    <          1.4E-10 Ry
     smearing contrib. (-TS)   =       0.00127466 Ry
     internal energy E=F+TS    =   -1067.79789776 Ry

     The total energy is F=E-TS. E is the sum of the following terms:
     one-electron contribution =    -719.85826298 Ry
     hartree contribution      =     378.94612183 Ry
     xc contribution           =     -88.14003001 Ry
     ewald contribution        =    -199.99906896 Ry
     DFT-D3 Dispersion         =      -0.36322145 Ry
     one-center paw contrib.   =    -438.38343618 Ry

     convergence has been achieved in  12 iterations

     Forces acting on atoms (cartesian axes, Ry/au):

     atom    1 type  1   force =    -0.00243182   -0.00140401   -0.00409118
     atom    2 type  2   force =    -0.00151109    0.00312684   -0.00933146
     atom    3 type  2   force =    -0.00287789   -0.00166155    0.01029415
     atom    4 type  2   force =    -0.00754453    0.00049618    0.01102507
     atom    5 type  2   force =    -0.00127984   -0.00073891    0.00175185
     atom    6 type  2   force =     0.00195237   -0.00287206   -0.00933146
     atom    7 type  2   force =     0.00225126    0.00129976   -0.00240906
     atom    8 type  2   force =    -0.00334255   -0.00678185    0.01102507
     atom    9 type  2   force =     0.00754485   -0.00049590   -0.01102384
     atom   10 type  2   force =     0.00287839    0.00166184   -0.01029327
     atom   11 type  2   force =     0.00151130   -0.00312653    0.00933243
     atom   12 type  1   force =     0.00242938    0.00140261    0.00408341
     atom   13 type  2   force =     0.00334296    0.00678198   -0.01102384
     atom   14 type  2   force =    -0.00225096   -0.00129959    0.00241035
     atom   15 type  2   force =    -0.00195201    0.00287209    0.00933243
     atom   16 type  2   force =     0.00128019    0.00073912   -0.00175066

     Total force =     0.037818     Total SCF correction =     0.000027


     Computing stress (Cartesian axis) and pressure

          total   stress  (Ry/bohr**3)                   (kbar)     P=        7.36
   0.00005752   0.00000051   0.00000949            8.46        0.08        1.40
   0.00000051   0.00005693   0.00000548            0.08        8.37        0.81
   0.00000949   0.00000548   0.00003572            1.40        0.81        5.25

     Energy error            =      1.9E-03 Ry
     Gradient error          =      1.1E-02 Ry/Bohr
     Cell gradient error     =      8.5E+00 kbar

     number of scf cycles    =   6
     number of bfgs steps    =   5

     enthalpy           old  =   -1067.7947422130 Ry
     enthalpy           new  =   -1067.7966230916 Ry

     CASE: enthalpy          _new < enthalpy          _old


     WARNING: bfgs curvature condition failed, Theta= 0.928
     new trust radius        =       0.0190020044 bohr
     new conv_thr            =       0.0000000010 Ry

     new unit-cell volume =   2032.08173 a.u.^3 (   301.12345 Ang^3 )
     density =      2.52638 g/cm^3

CELL_PARAMETERS (angstrom)
   6.000009843   0.007274107   0.012878477
  -2.993705360   5.185249813   0.000000014
   0.021005610   0.012127621   9.672121484

ATOMIC_POSITIONS (angstrom)
Co              -0.0034915032        1.7264008016        1.1911608861
Mg               1.4757274510        0.8941702533        3.5596394054
Mg              -0.0211692701        1.7161945445        6.1238966620
Mg               1.4773789828        0.8944954351        8.5387401044
Mg              -1.4973085155        4.3207783406        1.2230877625
Mg               0.0153851838        3.4235572768        3.5596394169
Mg              -1.4765422048        4.3327677950        6.0385509930
Mg               0.0164925559        3.4248249648        8.5387401179
Mg               3.0467832181        1.7175309966        1.1462618592
Mg               4.5453314666        0.8958317678        3.5611046927
Mg               3.0484347533        1.7178560444        6.1253621264
Co               4.5276582079        0.8856280270        8.4938265278
Mg               1.5139643923        4.3724511082        1.1462618605
Mg               3.0069989854        3.4645083029        3.6464508324
Mg               1.5150716474        4.3737188691        6.1253621315
Mg               3.0277653875        3.4764978015        8.4619144207



     Writing config-only to output data dir ./outdir/mgco.save/ :
     XML data file
     NEW-OLD atomic charge density approx. for the potential
     New effective cutoffs (rho, wfc):  557.41   69.70

     Check: negative core charge=   -0.000002

     total cpu time spent up to now is     1000.0 secs

     Self-consistent Calculation

     iteration #  1     ecut=    60.00 Ry     beta= 0.30
     Davidson diagonalization with overlap
     ethr =  1.00E-06,  avg # of iterations =  4.0

     total cpu time spent up to now is     1010.7 secs

     total energy              =   -1067.79682910 Ry
     estimated scf accuracy    <       0.00455475 Ry

     iteration #  2     ecut=    60.00 Ry     beta= 0.30
     Davidson diagonalization with overlap
     ethr =  7.35E-06,  avg # of iterations =  3.8

     total cpu time spent up to now is     1020.7 secs

     total energy              =   -1067.78698929 Ry
     estimated scf accuracy    <       0.44531428 Ry

     iteration #  3     ecut=    60.00 Ry     beta= 0.30
     Davidson diagonalization with overlap
     ethr =  7.35E-06,  avg # of iterations =  3.7

     total cpu time spent up to now is     1030.8 secs

     total energy              =   -1067.79888441 Ry
     estimated scf accuracy    <       0.00022456 Ry

     iteration #  4     ecut=    60.00 Ry     beta= 0.30
     Davidson diagonalization with overlap
     ethr =  3.62E-07,  avg # of iterations =  2.1

     total cpu time spent up to now is     1037.3 secs

     total energy              =   -1067.79889172 Ry
     estimated scf accuracy    <       0.00045369 Ry

     iteration #  5     ecut=    60.00 Ry     beta= 0.30
     Davidson diagonalization with overlap
     ethr =  3.62E-07,  avg # of iterations =  1.0

     total cpu time spent up to now is     1042.5 secs

     total energy              =   -1067.79890676 Ry
     estimated scf accuracy    <       0.00007534 Ry

     iteration #  6     ecut=    60.00 Ry     beta= 0.30
     Davidson diagonalization with overlap
     ethr =  1.22E-07,  avg # of iterations =  1.1

     total cpu time spent up to now is     1047.7 secs

     total energy              =   -1067.79890971 Ry
     estimated scf accuracy    <       0.00000175 Ry

     iteration #  7     ecut=    60.00 Ry     beta= 0.30
     Davidson diagonalization with overlap
     ethr =  2.82E-09,  avg # of iterations =  5.1

     total cpu time spent up to now is     1059.1 secs

     total energy              =   -1067.79891105 Ry
     estimated scf accuracy    <       0.00000150 Ry

     iteration #  8     ecut=    60.00 Ry     beta= 0.30
     Davidson diagonalization with overlap
     ethr =  2.41E-09,  avg # of iterations =  1.0

     total cpu time spent up to now is     1064.1 secs

     total energy              =   -1067.79891111 Ry
     estimated scf accuracy    <       0.00000034 Ry

     iteration #  9     ecut=    60.00 Ry     beta= 0.30
     Davidson diagonalization with overlap
     ethr =  5.51E-10,  avg # of iterations =  2.3

     total cpu time spent up to now is     1072.6 secs

     total energy              =   -1067.79891114 Ry
     estimated scf accuracy    <       0.00000005 Ry

     iteration # 10     ecut=    60.00 Ry     beta= 0.30
     Davidson diagonalization with overlap
     ethr =  7.89E-11,  avg # of iterations =  5.1

     total cpu time spent up to now is     1085.4 secs

     total energy              =   -1067.79891117 Ry
     estimated scf accuracy    <          4.5E-09 Ry

     iteration # 11     ecut=    60.00 Ry     beta= 0.30
     Davidson diagonalization with overlap
     ethr =  7.26E-12,  avg # of iterations =  3.5

     total cpu time spent up to now is     1095.3 secs

     total energy              =   -1067.79891117 Ry
     estimated scf accuracy    <          5.9E-09 Ry

     iteration # 12     ecut=    60.00 Ry     beta= 0.30
     Davidson diagonalization with overlap
     ethr =  7.26E-12,  avg # of iterations =  2.1

     total cpu time spent up to now is     1101.9 secs

     End of self-consistent calculation

     Number of k-points >= 100: set verbosity='high' to print the bands.

     the Fermi energy is     5.2690 ev

!    total energy              =   -1067.79891117 Ry
     estimated scf accuracy    <          7.9E-10 Ry
     smearing contrib. (-TS)   =       0.00127414 Ry
     internal energy E=F+TS    =   -1067.80018531 Ry

     The total energy is F=E-TS. E is the sum of the following terms:
     one-electron contribution =    -721.23917670 Ry
     hartree contribution      =     379.57295396 Ry
     xc contribution           =     -88.12380404 Ry
     ewald contribution        =    -199.27035172 Ry
     DFT-D3 Dispersion         =      -0.36210665 Ry
     one-center paw contrib.   =    -438.37770016 Ry

     convergence has been achieved in  12 iterations

     Forces acting on atoms (cartesian axes, Ry/au):

     atom    1 type  1   force =    -0.00238975   -0.00137973   -0.00377920
     atom    2 type  2   force =    -0.00095818    0.00267022   -0.00831540
     atom    3 type  2   force =    -0.00234279   -0.00135261    0.00901992
     atom    4 type  2   force =    -0.00714380    0.00006279    0.00992285
     atom    5 type  2   force =    -0.00116845   -0.00067461    0.00179770
     atom    6 type  2   force =     0.00183339   -0.00216492   -0.00831540
     atom    7 type  2   force =     0.00208375    0.00120305   -0.00232977
     atom    8 type  2   force =    -0.00351752   -0.00621811    0.00992285
     atom    9 type  2   force =     0.00714403   -0.00006258   -0.00991844
     atom   10 type  2   force =     0.00234307    0.00135277   -0.00901705
     atom   11 type  2   force =     0.00095835   -0.00267006    0.00831838
     atom   12 type  1   force =     0.00238813    0.00137880    0.00375375
     atom   13 type  2   force =     0.00351782    0.00621820   -0.00991844
     atom   14 type  2   force =    -0.00208352   -0.00120292    0.00233300
     atom   15 type  2   force =    -0.00183317    0.00216498    0.00831838
     atom   16 type  2   force =     0.00116865    0.00067472   -0.00179315

     Total force =     0.034061     Total SCF correction =     0.000095


     Computing stress (Cartesian axis) and pressure

          total   stress  (Ry/bohr**3)                   (kbar)     P=        5.62
   0.00004448  -0.00000021   0.00000910            6.54       -0.03        1.34
  -0.00000021   0.00004473   0.00000526           -0.03        6.58        0.77
   0.00000910   0.00000526   0.00002547            1.34        0.77        3.75

     Energy error            =      2.3E-03 Ry
     Gradient error          =      9.9E-03 Ry/Bohr
     Cell gradient error     =      6.6E+00 kbar

     number of scf cycles    =   7
     number of bfgs steps    =   6

     enthalpy           old  =   -1067.7966230916 Ry
     enthalpy           new  =   -1067.7989111667 Ry

     CASE: enthalpy          _new < enthalpy          _old

     new trust radius        =       0.0285173855 bohr
     new conv_thr            =       0.0000000010 Ry

     new unit-cell volume =   2037.77094 a.u.^3 (   301.96650 Ang^3 )
     density =      2.51933 g/cm^3

CELL_PARAMETERS (angstrom)
   6.008234991   0.007482016   0.016052230
  -2.997637880   5.192061136   0.000000012
   0.026201454   0.015127439   9.673065086

ATOMIC_POSITIONS (angstrom)
Co              -0.0055352435        1.7274912828        1.1872810772
Mg               1.4775569565        0.9000649904        3.5503089097
Mg              -0.0214187049        1.7183209716        6.1367038477
Mg               1.4753998502        0.8991074890        8.5529976101
Mg              -1.4999639967        4.3260565215        1.2257935124
Mg               0.0194386699        3.4255999647        3.5503089199
Mg              -1.4728053751        4.3417365754        6.0370546390
Mg               0.0175308913        3.4242106124        8.5529976217
Mg               3.0602172369        1.7195324399        1.1361245211
Mg               4.5570357797        0.9003188134        3.5524167341
Mg               3.0580600453        1.7185747677        6.1388119784
Co               4.5411558630        0.8911504606        8.5018069927
Mg               1.5204484429        4.3864902476        1.1361245220
Mg               3.0107844630        3.4689642876        3.6520667227
Mg               1.5185404683        4.3851009107        6.1388119826
Mg               3.0379431780        3.4846443879        8.4633290301



     Writing config-only to output data dir ./outdir/mgco.save/ :
     XML data file
[...]
         Mg         9.872            3.292    351.12  31436.69
         Mg         9.872            3.292    351.12  31436.69
         Mg         9.419            3.292    351.12  31436.69
         Mg         9.749            3.292    351.12  31436.69
         Co         7.459            3.243    236.57  20800.86
         Mg         9.872            3.292    351.12  31436.69
         Mg         9.211            3.292    351.12  31436.69
         Mg         9.749            3.292    351.12  31436.69
         Mg         9.779            3.292    351.12  31436.69

         Molecular C6 ( Ry / a.u.^6 ) =     85485.84


     number of k points=   144  Marzari-Vanderbilt smearing, width (Ry)=  0.0100

     Number of k-points >= 100: set verbosity='high' to print them.

     Dense  grid:   368785 G-vectors     FFT dimensions: (  80,  80, 144)

     Smooth grid:   130327 G-vectors     FFT dimensions: (  54,  60, 100)

     Estimated max dynamical RAM per process >       2.86 GB

     Check: negative core charge=   -0.000001

     Initial potential from superposition of free atoms

     starting charge      59.9871, renormalised to      62.0000
     Starting wfcs are   82 randomized atomic wfcs

     total cpu time spent up to now is    18333.8 secs

     Self-consistent Calculation

     iteration #  1     ecut=    60.00 Ry     beta= 0.30
     Davidson diagonalization with overlap
     c_bands:  1 eigenvalues not converged
     c_bands:  1 eigenvalues not converged
     c_bands:  1 eigenvalues not converged
     c_bands:  1 eigenvalues not converged
     c_bands:  2 eigenvalues not converged
     c_bands:  2 eigenvalues not converged
     c_bands:  2 eigenvalues not converged
     c_bands:  2 eigenvalues not converged
     c_bands:  1 eigenvalues not converged
     c_bands:  2 eigenvalues not converged
     c_bands:  2 eigenvalues not converged
     c_bands:  2 eigenvalues not converged
     c_bands:  2 eigenvalues not converged
     c_bands:  1 eigenvalues not converged
     c_bands:  1 eigenvalues not converged
     c_bands:  1 eigenvalues not converged
     c_bands:  2 eigenvalues not converged
     c_bands:  2 eigenvalues not converged
     c_bands:  2 eigenvalues not converged
     c_bands:  1 eigenvalues not converged
     c_bands:  2 eigenvalues not converged
     c_bands:  1 eigenvalues not converged
     c_bands:  1 eigenvalues not converged
     c_bands:  1 eigenvalues not converged
     c_bands:  2 eigenvalues not converged
     c_bands:  2 eigenvalues not converged
     c_bands:  1 eigenvalues not converged
     c_bands:  1 eigenvalues not converged
     c_bands:  2 eigenvalues not converged
     c_bands:  1 eigenvalues not converged
     c_bands:  2 eigenvalues not converged
     c_bands:  2 eigenvalues not converged
     c_bands:  2 eigenvalues not converged
     c_bands:  2 eigenvalues not converged
     c_bands:  1 eigenvalues not converged
     c_bands:  1 eigenvalues not converged
     c_bands:  1 eigenvalues not converged
     c_bands:  1 eigenvalues not converged
     c_bands:  1 eigenvalues not converged
     c_bands:  1 eigenvalues not converged
     c_bands:  1 eigenvalues not converged
     c_bands:  2 eigenvalues not converged
     c_bands:  1 eigenvalues not converged
     c_bands:  2 eigenvalues not converged
     c_bands:  1 eigenvalues not converged
     c_bands:  2 eigenvalues not converged
     c_bands:  1 eigenvalues not converged
     c_bands:  1 eigenvalues not converged
     c_bands:  2 eigenvalues not converged
     c_bands:  1 eigenvalues not converged
     c_bands:  1 eigenvalues not converged
     c_bands:  1 eigenvalues not converged
     c_bands:  1 eigenvalues not converged
     c_bands:  1 eigenvalues not converged
     c_bands:  1 eigenvalues not converged
     c_bands:  1 eigenvalues not converged
     c_bands:  1 eigenvalues not converged
     c_bands:  1 eigenvalues not converged
     c_bands:  1 eigenvalues not converged
     c_bands:  1 eigenvalues not converged
     c_bands:  1 eigenvalues not converged
     c_bands:  1 eigenvalues not converged
     c_bands:  2 eigenvalues not converged
     c_bands:  2 eigenvalues not converged
     c_bands:  1 eigenvalues not converged
     c_bands:  2 eigenvalues not converged
     c_bands:  1 eigenvalues not converged
     c_bands:  2 eigenvalues not converged
     c_bands:  2 eigenvalues not converged
     c_bands:  1 eigenvalues not converged
     c_bands:  1 eigenvalues not converged
     c_bands:  1 eigenvalues not converged
     c_bands:  1 eigenvalues not converged
     c_bands:  1 eigenvalues not converged
     c_bands:  1 eigenvalues not converged
     c_bands:  2 eigenvalues not converged
     c_bands:  1 eigenvalues not converged
     c_bands:  1 eigenvalues not converged
     c_bands:  2 eigenvalues not converged
     c_bands:  2 eigenvalues not converged
     c_bands:  2 eigenvalues not converged
     c_bands:  2 eigenvalues not converged
     c_bands:  1 eigenvalues not converged
     c_bands:  1 eigenvalues not converged
     c_bands:  1 eigenvalues not converged
     c_bands:  2 eigenvalues not converged
     c_bands:  1 eigenvalues not converged
     c_bands:  2 eigenvalues not converged
     c_bands:  1 eigenvalues not converged
     c_bands:  1 eigenvalues not converged
     c_bands:  1 eigenvalues not converged
     c_bands:  2 eigenvalues not converged
     c_bands:  2 eigenvalues not converged
     c_bands:  1 eigenvalues not converged
     c_bands:  2 eigenvalues not converged
     ethr =  1.00E-06,  avg # of iterations = 19.3

     total cpu time spent up to now is    18370.1 secs

     total energy              =   -1058.19835537 Ry
     estimated scf accuracy    <      24.43570905 Ry

     iteration #  2     ecut=    60.00 Ry     beta= 0.30
     Davidson diagonalization with overlap
     ethr =  1.00E-02,  avg # of iterations =  3.0

     total cpu time spent up to now is    18377.6 secs

     total energy              =   -1067.16543958 Ry
     estimated scf accuracy    <      37.74040413 Ry

     iteration #  3     ecut=    60.00 Ry     beta= 0.30
     Davidson diagonalization with overlap
     ethr =  1.00E-02,  avg # of iterations =  2.5

     total cpu time spent up to now is    18385.2 secs

     total energy              =   -1067.60152367 Ry
     estimated scf accuracy    <       9.86307684 Ry

     iteration #  4     ecut=    60.00 Ry     beta= 0.30
     Davidson diagonalization with overlap
     ethr =  1.00E-02,  avg # of iterations =  1.3

     total cpu time spent up to now is    18390.4 secs

     total energy              =   -1067.53810486 Ry
     estimated scf accuracy    <       4.31177424 Ry

     iteration #  5     ecut=    60.00 Ry     beta= 0.30
     Davidson diagonalization with overlap
     ethr =  6.95E-03,  avg # of iterations =  2.0

     total cpu time spent up to now is    18396.1 secs

     total energy              =   -1067.72438723 Ry
     estimated scf accuracy    <       0.31132055 Ry

     iteration #  6     ecut=    60.00 Ry     beta= 0.30
     Davidson diagonalization with overlap
     ethr =  5.02E-04,  avg # of iterations =  3.8

     total cpu time spent up to now is    18406.1 secs

     total energy              =   -1067.79304240 Ry
     estimated scf accuracy    <       2.05212762 Ry

     iteration #  7     ecut=    60.00 Ry     beta= 0.30
     Davidson diagonalization with overlap
     ethr =  5.02E-04,  avg # of iterations =  2.2

     total cpu time spent up to now is    18412.6 secs

     total energy              =   -1067.84594886 Ry
     estimated scf accuracy    <       0.16681548 Ry

     iteration #  8     ecut=    60.00 Ry     beta= 0.30
     Davidson diagonalization with overlap
     ethr =  2.69E-04,  avg # of iterations =  1.0

     total cpu time spent up to now is    18417.2 secs

     total energy              =   -1067.84505437 Ry
     estimated scf accuracy    <       0.13935779 Ry

     iteration #  9     ecut=    60.00 Ry     beta= 0.30
     Davidson diagonalization with overlap
     ethr =  2.25E-04,  avg # of iterations =  1.0

     total cpu time spent up to now is    18421.6 secs

     total energy              =   -1067.84588815 Ry
     estimated scf accuracy    <       0.02480758 Ry

     iteration # 10     ecut=    60.00 Ry     beta= 0.30
     Davidson diagonalization with overlap
     ethr =  4.00E-05,  avg # of iterations =  4.3

     total cpu time spent up to now is    18434.8 secs

     total energy              =   -1067.84890881 Ry
     estimated scf accuracy    <       0.01955994 Ry

     iteration # 11     ecut=    60.00 Ry     beta= 0.30
     Davidson diagonalization with overlap
     ethr =  3.15E-05,  avg # of iterations =  1.7

     total cpu time spent up to now is    18442.3 secs

     total energy              =   -1067.84852841 Ry
     estimated scf accuracy    <       0.00471008 Ry

     iteration # 12     ecut=    60.00 Ry     beta= 0.30
     Davidson diagonalization with overlap
     ethr =  7.60E-06,  avg # of iterations =  3.1

     total cpu time spent up to now is    18452.2 secs

     total energy              =   -1067.84854361 Ry
     estimated scf accuracy    <       0.00636692 Ry

     iteration # 13     ecut=    60.00 Ry     beta= 0.30
     Davidson diagonalization with overlap
     ethr =  7.60E-06,  avg # of iterations =  1.7

     total cpu time spent up to now is    18458.7 secs

     total energy              =   -1067.84902522 Ry
     estimated scf accuracy    <       0.00366993 Ry

     iteration # 14     ecut=    60.00 Ry     beta= 0.30
     Davidson diagonalization with overlap
     ethr =  5.92E-06,  avg # of iterations =  1.0

     total cpu time spent up to now is    18463.1 secs

     total energy              =   -1067.84912550 Ry
     estimated scf accuracy    <       0.00034833 Ry

     iteration # 15     ecut=    60.00 Ry     beta= 0.30
     Davidson diagonalization with overlap
     ethr =  5.62E-07,  avg # of iterations =  3.8

     total cpu time spent up to now is    18473.8 secs

     total energy              =   -1067.84913211 Ry
     estimated scf accuracy    <       0.00033262 Ry

     iteration # 16     ecut=    60.00 Ry     beta= 0.30
     Davidson diagonalization with overlap
     ethr =  5.36E-07,  avg # of iterations =  1.5

     total cpu time spent up to now is    18479.9 secs

     total energy              =   -1067.84915455 Ry
     estimated scf accuracy    <       0.00000407 Ry

     iteration # 17     ecut=    60.00 Ry     beta= 0.30
     Davidson diagonalization with overlap
     ethr =  6.56E-09,  avg # of iterations =  5.0

     total cpu time spent up to now is    18491.0 secs

     total energy              =   -1067.84919303 Ry
     estimated scf accuracy    <       0.00000398 Ry

     iteration # 18     ecut=    60.00 Ry     beta= 0.30
     Davidson diagonalization with overlap
     ethr =  6.42E-09,  avg # of iterations =  1.0

     total cpu time spent up to now is    18495.6 secs

     total energy              =   -1067.84919300 Ry
     estimated scf accuracy    <       0.00000196 Ry

     iteration # 19     ecut=    60.00 Ry     beta= 0.30
     Davidson diagonalization with overlap
     ethr =  3.17E-09,  avg # of iterations =  1.0

     total cpu time spent up to now is    18500.1 secs

     total energy              =   -1067.84919312 Ry
     estimated scf accuracy    <       0.00000066 Ry

     iteration # 20     ecut=    60.00 Ry     beta= 0.30
     Davidson diagonalization with overlap
     ethr =  1.06E-09,  avg # of iterations =  1.0

     total cpu time spent up to now is    18504.7 secs

     total energy              =   -1067.84919312 Ry
     estimated scf accuracy    <       0.00000004 Ry

     iteration # 21     ecut=    60.00 Ry     beta= 0.30
     Davidson diagonalization with overlap
     ethr =  7.02E-11,  avg # of iterations =  4.3

     total cpu time spent up to now is    18514.8 secs

     total energy              =   -1067.84919313 Ry
     estimated scf accuracy    <       0.00000001 Ry

     iteration # 22     ecut=    60.00 Ry     beta= 0.30
     Davidson diagonalization with overlap
     ethr =  1.75E-11,  avg # of iterations =  2.5

     total cpu time spent up to now is    18522.2 secs

     total energy              =   -1067.84919314 Ry
     estimated scf accuracy    <          3.0E-09 Ry

     iteration # 23     ecut=    60.00 Ry     beta= 0.30
     Davidson diagonalization with overlap
     ethr =  4.84E-12,  avg # of iterations =  2.7

     total cpu time spent up to now is    18530.5 secs

     total energy              =   -1067.84919314 Ry
     estimated scf accuracy    <          2.2E-09 Ry

     iteration # 24     ecut=    60.00 Ry     beta= 0.30
     Davidson diagonalization with overlap
     ethr =  3.58E-12,  avg # of iterations =  1.2

     total cpu time spent up to now is    18535.7 secs

     total energy              =   -1067.84919314 Ry
     estimated scf accuracy    <          2.3E-09 Ry

     iteration # 25     ecut=    60.00 Ry     beta= 0.30
     Davidson diagonalization with overlap
     ethr =  3.58E-12,  avg # of iterations =  1.0

     total cpu time spent up to now is    18540.1 secs

     total energy              =   -1067.84919314 Ry
     estimated scf accuracy    <          1.4E-09 Ry

     iteration # 26     ecut=    60.00 Ry     beta= 0.30
     Davidson diagonalization with overlap
     ethr =  2.27E-12,  avg # of iterations =  1.1

     total cpu time spent up to now is    18544.8 secs

     total energy              =   -1067.84919314 Ry
     estimated scf accuracy    <          4.6E-10 Ry

     iteration # 27     ecut=    60.00 Ry     beta= 0.30
     Davidson diagonalization with overlap
     ethr =  7.37E-13,  avg # of iterations =  3.5

     total cpu time spent up to now is    18554.7 secs

     total energy              =   -1067.84919313 Ry
     estimated scf accuracy    <          2.9E-10 Ry

     iteration # 28     ecut=    60.00 Ry     beta= 0.30
     Davidson diagonalization with overlap
     ethr =  4.75E-13,  avg # of iterations =  2.6

     total cpu time spent up to now is    18562.9 secs

     total energy              =   -1067.84919313 Ry
     estimated scf accuracy    <          4.3E-11 Ry

     iteration # 29     ecut=    60.00 Ry     beta= 0.30
     Davidson diagonalization with overlap
     ethr =  1.00E-13,  avg # of iterations =  4.1

     total cpu time spent up to now is    18573.1 secs

     End of self-consistent calculation

     Number of k-points >= 100: set verbosity='high' to print the bands.

     the Fermi energy is     5.1105 ev

!    total energy              =   -1067.84919313 Ry
     estimated scf accuracy    <          8.3E-12 Ry
     smearing contrib. (-TS)   =       0.00015706 Ry
     internal energy E=F+TS    =   -1067.84935019 Ry

     The total energy is F=E-TS. E is the sum of the following terms:
     one-electron contribution =    -764.46908848 Ry
     hartree contribution      =     400.76479461 Ry
     xc contribution           =     -88.09937915 Ry
     ewald contribution        =    -177.35328984 Ry
     DFT-D3 Dispersion         =      -0.35547480 Ry
     one-center paw contrib.   =    -438.33691253 Ry

     convergence has been achieved in  29 iterations

     Forces acting on atoms (cartesian axes, Ry/au):

     atom    1 type  1   force =    -0.00002200   -0.00001271    0.00000081
     atom    2 type  2   force =     0.00002691   -0.00004771   -0.00001468
     atom    3 type  2   force =     0.00000900    0.00000520   -0.00007014
     atom    4 type  2   force =     0.00003905   -0.00001293    0.00002651
     atom    5 type  2   force =     0.00000537    0.00000310    0.00006103
     atom    6 type  2   force =    -0.00002787    0.00004716   -0.00001468
     atom    7 type  2   force =     0.00004653    0.00002687   -0.00005040
     atom    8 type  2   force =     0.00000833    0.00004028    0.00002651
     atom    9 type  2   force =    -0.00003753    0.00001240   -0.00002470
     atom   10 type  2   force =    -0.00000868   -0.00000501    0.00006971
     atom   11 type  2   force =    -0.00002661    0.00004812    0.00001383
     atom   12 type  1   force =     0.00002332    0.00001345   -0.00000152
     atom   13 type  2   force =    -0.00000803   -0.00003870   -0.00002470
     atom   14 type  2   force =    -0.00004798   -0.00002770    0.00005024
     atom   15 type  2   force =     0.00002837   -0.00004710    0.00001383
     atom   16 type  2   force =    -0.00000818   -0.00000473   -0.00006163

     Total force =     0.000228     Total SCF correction =     0.000002


     Computing stress (Cartesian axis) and pressure

          total   stress  (Ry/bohr**3)                   (kbar)     P=        0.23
   0.00000208   0.00000021  -0.00000037            0.31        0.03       -0.05
   0.00000021   0.00000184  -0.00000021            0.03        0.27       -0.03
  -0.00000037  -0.00000021   0.00000081           -0.05       -0.03        0.12


     Writing all to output data dir ./outdir/mgco.save/ :
     XML data file, charge density, pseudopotentials, collected wavefunctions
 
     init_run     :      8.82s CPU      9.59s WALL (       2 calls)
     electrons    :  17654.53s CPU  17733.61s WALL (     139 calls)
     update_pot   :     13.83s CPU     13.86s WALL (     137 calls)
     forces       :    254.63s CPU    254.85s WALL (     139 calls)
     force_dftd3  :     22.35s CPU     22.36s WALL (     139 calls)
     stress       :    465.78s CPU    467.00s WALL (     139 calls)
     stres_dftd3  :     22.50s CPU     22.50s WALL (     139 calls)

     Called by init_run:
     wfcinit      :      6.36s CPU      6.94s WALL (       2 calls)
     potinit      :      1.25s CPU      1.28s WALL (       2 calls)
     hinit0       :      0.40s CPU      0.42s WALL (       2 calls)

     Called by electrons:
     c_bands      :  15607.73s CPU  15677.17s WALL (    1925 calls)
     sum_band     :   1472.01s CPU   1475.49s WALL (    1925 calls)
     v_of_rho     :     11.81s CPU     12.10s WALL (    2042 calls)
     newd         :    405.44s CPU    405.70s WALL (    2042 calls)
     PAW_pot      :    124.07s CPU    124.14s WALL (    2179 calls)
     mix_rho      :     21.34s CPU     24.39s WALL (    1925 calls)
     energy_dftd3 :     26.90s CPU     26.90s WALL (     139 calls)

     Called by c_bands:
     init_us_2    :    236.17s CPU    236.47s WALL (  614448 calls)
     cegterg      :  14733.81s CPU  14794.86s WALL (  277200 calls)

     Called by *egterg:
     cdiaghg      :   4073.16s CPU   4269.73s WALL ( 1091763 calls)
                                     4266.29s GPU  ( 1091763 calls)
     h_psi        :   4267.32s CPU   4317.16s WALL ( 1114947 calls)
     s_psi        :   1137.29s CPU   1141.00s WALL ( 1114947 calls)
     g_psi        :     25.69s CPU     25.76s WALL (  837459 calls)

     Called by h_psi:
     h_psi:calbec :     29.42s CPU     30.82s WALL ( 1114947 calls)
     vloc_psi     :   2853.42s CPU   2893.95s WALL ( 1114947 calls)
                                     2891.17s GPU  ( 1114947 calls)
     add_vuspsi   :   1354.92s CPU   1367.47s WALL ( 1114947 calls)

     General routines
     calbec       :     36.73s CPU     38.29s WALL ( 1752147 calls)
     fft          :     12.76s CPU     17.03s WALL (   29902 calls)
                                        4.50s GPU  (   27860 calls)
     ffts         :      3.46s CPU      3.59s WALL (    3967 calls)
                                        0.16s GPU  (    1925 calls)
     fftw         :     45.33s CPU   2968.65s WALL ( 5708464 calls)
                                     2953.55s GPU  ( 5708464 calls)
     interpolate  :     18.92s CPU     19.05s WALL (    2042 calls)
 
 
     PWSCF        :      5h 8m CPU      5h 9m WALL

 
   This run was terminated on:  13:35:36  28May2026            

=------------------------------------------------------------------------------=
   JOB DONE.
=------------------------------------------------------------------------------=
