
     Program PWSCF v.7.5 starts on 28May2026 at 13:35:36 

     This program is part of the open-source Quantum ESPRESSO suite
     for quantum simulation of materials; please cite
         "P. Giannozzi et al., J. Phys.:Condens. Matter 21 395502 (2009);
         "P. Giannozzi et al., J. Phys.:Condens. Matter 29 465901 (2017);
         "P. Giannozzi et al., J. Chem. Phys. 152 154105 (2020);
          URL http://www.quantum-espresso.org", 
     in publications or presentations arising from this work. More details at
     http://www.quantum-espresso.org/quote

     Serial multi-threaded version, running on    1 processor cores
     9939 MiB available memory on the printing compute node when the environment starts
 
     Reading input from inputs/mgh2ni.in

     Current dimensions of program PWSCF are:
     Max number of different atomic species (ntypx) = 10
     Max number of k-points (npk) =  40000
     Max angular momentum in pseudopotentials (lmaxx) =  4
     file Mg.pbe-n-kjpaw_psl.0.3.0.UPF: wavefunction(s)  3S renormalized
 
 
     G-vector sticks info
     --------------------
     sticks:   dense  smooth     PW     G-vecs:    dense   smooth      PW
     Sum       11141    5573   1533               590787   208901   30185
 
     Using Slab Decomposition
 


     bravais-lattice index     =            0
     lattice parameter (alat)  =      17.0710  a.u.
     unit-cell volume          =    3326.8035 (a.u.)^3
     number of atoms/cell      =           48
     number of atomic types    =            3
     number of electrons       =        96.00
     number of Kohn-Sham states=           58
     kinetic-energy cutoff     =      60.0000  Ry
     charge density cutoff     =     480.0000  Ry
     scf convergence threshold =      1.0E-09
     mixing beta               =       0.3000
     number of iterations used =           12  plain     mixing
     energy convergence thresh.=      1.0E-05
     force convergence thresh. =      1.0E-04
     press convergence thresh. =      5.0E-01
     Exchange-correlation= PBE
                           (   1   4   3   4   0   0   0)
     nstep                     =          200


     GPU acceleration is ACTIVE.  1 visible GPUs per MPI rank


     celldm(1)=  17.071030  celldm(2)=   0.000000  celldm(3)=   0.000000
     celldm(4)=   0.000000  celldm(5)=   0.000000  celldm(6)=   0.000000

     crystal axes: (cart. coord. in units of alat)
               a(1) = (   1.000000   0.000000   0.000000 )  
               a(2) = (   0.000000   1.000000   0.000000 )  
               a(3) = (   0.000000   0.000000   0.668726 )  

     reciprocal axes: (cart. coord. in units 2 pi/alat)
               b(1) = (  1.000000  0.000000  0.000000 )  
               b(2) = (  0.000000  1.000000  0.000000 )  
               b(3) = (  0.000000  0.000000  1.495382 )  


     PseudoPot. # 1 for Ni read from file:
     /home/x/Workspace/espresso/pseudo/ni_pbe_v1.4.uspp.F.UPF
     MD5 check sum: 1ee80287db30b12d2bc1f57a5b5d6409
     Pseudo is Ultrasoft + core correction, Zval = 18.0
     Generated by new atomic code, or converted to UPF format
     Using radial grid of  865 points,  6 beta functions with: 
                l(1) =   0
                l(2) =   0
                l(3) =   1
                l(4) =   1
                l(5) =   2
                l(6) =   2
     Q(r) pseudized with 10 coefficients,  rinner =    0.980   0.980   0.980
                                                       0.980   0.980

     PseudoPot. # 2 for Mg read from file:
     /home/x/Workspace/espresso/pseudo/Mg.pbe-n-kjpaw_psl.0.3.0.UPF
     MD5 check sum: 24ecedc7f3e3cbe212e682f4413594e4
     Pseudo is Projector augmented-wave + core cor, Zval =  2.0
     Generated using "atomic" code by A. Dal Corso  v.5.0.99 svn rev. 10869
     Shape of augmentation charge: PSQ
     Using radial grid of 1129 points,  4 beta functions with: 
                l(1) =   0
                l(2) =   0
                l(3) =   1
                l(4) =   1
     Q(r) pseudized with 0 coefficients 


     PseudoPot. # 3 for H  read from file:
     /home/x/Workspace/espresso/pseudo/H.pbe-rrkjus_psl.1.0.0.UPF
     MD5 check sum: f52b6d4d1c606e5624b1dc7b2218f220
     Pseudo is Ultrasoft, Zval =  1.0
     Generated using "atomic" code by A. Dal Corso  v.5.1
     Using radial grid of  929 points,  2 beta functions with: 
                l(1) =   0
                l(2) =   0
     Q(r) pseudized with 0 coefficients 


     atomic species   valence    mass     pseudopotential
     Ni               18.00    58.69340     Ni( 1.00)
     Mg                2.00    24.30500     Mg( 1.00)
     H                 1.00     1.00794     H ( 1.00)

     No symmetry found



   Cartesian axes

     site n.     atom                  positions (alat units)
         1        Ni     tau(   1) = (   0.0000000   0.0000000   0.0000000  )
         2        Mg     tau(   2) = (   0.2500000   0.2500000   0.1671814  )
         3        H      tau(   3) = (   0.1520000   0.1520000   0.0000000  )
         4        H      tau(   4) = (  -0.1520000  -0.1520000   0.0000000  )
         5        H      tau(   5) = (   0.4020000   0.0980000   0.1671814  )
         6        H      tau(   6) = (   0.0980000   0.4020000   0.1671814  )
         7        Mg     tau(   7) = (   0.0000000   0.0000000   0.3343628  )
         8        Mg     tau(   8) = (   0.2500000   0.2500000   0.5015442  )
         9        H      tau(   9) = (   0.1520000   0.1520000   0.3343628  )
        10        H      tau(  10) = (  -0.1520000  -0.1520000   0.3343628  )
        11        H      tau(  11) = (   0.4020000   0.0980000   0.5015442  )
        12        H      tau(  12) = (   0.0980000   0.4020000   0.5015442  )
        13        Mg     tau(  13) = (   0.0000000   0.5000000   0.0000000  )
        14        Mg     tau(  14) = (   0.2500000   0.7500000   0.1671814  )
        15        H      tau(  15) = (   0.1520000   0.6520000   0.0000000  )
        16        H      tau(  16) = (  -0.1520000   0.3480000   0.0000000  )
        17        H      tau(  17) = (   0.4020000   0.5980000   0.1671814  )
        18        H      tau(  18) = (   0.0980000   0.9020000   0.1671814  )
        19        Mg     tau(  19) = (   0.0000000   0.5000000   0.3343628  )
        20        Mg     tau(  20) = (   0.2500000   0.7500000   0.5015442  )
        21        H      tau(  21) = (   0.1520000   0.6520000   0.3343628  )
        22        H      tau(  22) = (  -0.1520000   0.3480000   0.3343628  )
        23        H      tau(  23) = (   0.4020000   0.5980000   0.5015442  )
        24        H      tau(  24) = (   0.0980000   0.9020000   0.5015442  )
        25        Mg     tau(  25) = (   0.5000000   0.0000000   0.0000000  )
        26        Mg     tau(  26) = (   0.7500000   0.2500000   0.1671814  )
        27        H      tau(  27) = (   0.6520000   0.1520000   0.0000000  )
        28        H      tau(  28) = (   0.3480000  -0.1520000   0.0000000  )
        29        H      tau(  29) = (   0.9020000   0.0980000   0.1671814  )
        30        H      tau(  30) = (   0.5980000   0.4020000   0.1671814  )
        31        Mg     tau(  31) = (   0.5000000   0.0000000   0.3343628  )
        32        Mg     tau(  32) = (   0.7500000   0.2500000   0.5015442  )
        33        H      tau(  33) = (   0.6520000   0.1520000   0.3343628  )
        34        H      tau(  34) = (   0.3480000  -0.1520000   0.3343628  )
        35        H      tau(  35) = (   0.9020000   0.0980000   0.5015442  )
        36        H      tau(  36) = (   0.5980000   0.4020000   0.5015442  )
        37        Mg     tau(  37) = (   0.5000000   0.5000000   0.0000000  )
        38        Mg     tau(  38) = (   0.7500000   0.7500000   0.1671814  )
        39        H      tau(  39) = (   0.6520000   0.6520000   0.0000000  )
        40        H      tau(  40) = (   0.3480000   0.3480000   0.0000000  )
        41        H      tau(  41) = (   0.9020000   0.5980000   0.1671814  )
        42        H      tau(  42) = (   0.5980000   0.9020000   0.1671814  )
        43        Mg     tau(  43) = (   0.5000000   0.5000000   0.3343628  )
        44        Ni     tau(  44) = (   0.7500000   0.7500000   0.5015442  )
        45        H      tau(  45) = (   0.6520000   0.6520000   0.3343628  )
        46        H      tau(  46) = (   0.3480000   0.3480000   0.3343628  )
        47        H      tau(  47) = (   0.9020000   0.5980000   0.5015442  )
        48        H      tau(  48) = (   0.5980000   0.9020000   0.5015442  )

     --------------------------------------------
     DFT-D3 Dispersion Correction (3-body terms):
     --------------------------------------------
       Reference C6 values for interpolation: 

         atom   Coordination number   C6
         H          0.912             6.05
         H          0.000            15.18
         Mg         0.000          1366.75
         Mg         0.963           902.54
         Mg         1.950           351.12
         Ni         0.000          1149.49
         Ni         1.794           356.66
         Ni         6.546           257.56
         Ni         6.292           283.75

       Values used:

         atom   Coordination number  R0_AB[au]  C6      C8
         Ni         2.439            3.162    356.66  29885.72
         Mg         8.438            3.292    351.12  31436.69
         H          1.670            2.062      6.05     73.19
         H          1.072            2.062      6.13     74.09
         H          2.280            2.062      6.05     73.18
         H          2.280            2.062      6.05     73.18
         Mg         7.669            3.292    351.12  31436.69
         Mg         8.437            3.292    351.12  31436.69
         H          2.278            2.062      6.05     73.18
         H          1.681            2.062      6.05     73.19
         H          2.280            2.062      6.05     73.18
         H          2.280            2.062      6.05     73.18
         Mg         8.417            3.292    351.12  31436.69
         Mg         8.433            3.292    351.12  31436.69
         H          2.278            2.062      6.05     73.18
         H          2.278            2.062      6.05     73.18
         H          2.280            2.062      6.05     73.18
         H          1.682            2.062      6.05     73.19
         Mg         8.433            3.292    351.12  31436.69
         Mg         8.417            3.292    351.12  31436.69
         H          2.280            2.062      6.05     73.18
         H          2.280            2.062      6.05     73.18
         H          2.279            2.062      6.05     73.18
         H          1.681            2.062      6.05     73.19
         Mg         8.417            3.292    351.12  31436.69
         Mg         8.433            3.292    351.12  31436.69
         H          2.278            2.062      6.05     73.18
         H          2.278            2.062      6.05     73.18
         H          1.682            2.062      6.05     73.19
         H          2.280            2.062      6.05     73.18
         Mg         8.433            3.292    351.12  31436.69
         Mg         8.417            3.292    351.12  31436.69
         H          2.280            2.062      6.05     73.18
         H          2.280            2.062      6.05     73.18
         H          1.681            2.062      6.05     73.19
         H          2.279            2.062      6.05     73.18
         Mg         8.437            3.292    351.12  31436.69
         Mg         7.669            3.292    351.12  31436.69
         H          1.682            2.062      6.05     73.19
         H          2.280            2.062      6.05     73.18
         H          2.278            2.062      6.05     73.18
         H          2.278            2.062      6.05     73.18
         Mg         8.438            3.292    351.12  31436.69
         Ni         2.439            3.162    356.66  29885.72
         H          1.682            2.062      6.05     73.19
         H          2.280            2.062      6.05     73.18
         H          1.670            2.062      6.05     73.19
         H          1.670            2.062      6.05     73.19

         Molecular C6 ( Ry / a.u.^6 ) =    141057.74


     number of k points=    96  Marzari-Vanderbilt smearing, width (Ry)=  0.0100
                       cart. coord. in units 2pi/alat
        k(    1) = (   0.0000000   0.0000000   0.0000000), wk =   0.0208333
        k(    2) = (   0.0000000   0.0000000   0.2492303), wk =   0.0208333
        k(    3) = (   0.0000000   0.0000000   0.4984605), wk =   0.0208333
        k(    4) = (   0.0000000   0.0000000  -0.7476908), wk =   0.0208333
        k(    5) = (   0.0000000   0.0000000  -0.4984605), wk =   0.0208333
        k(    6) = (   0.0000000   0.0000000  -0.2492303), wk =   0.0208333
        k(    7) = (   0.0000000   0.2500000   0.0000000), wk =   0.0208333
        k(    8) = (   0.0000000   0.2500000   0.2492303), wk =   0.0208333
        k(    9) = (   0.0000000   0.2500000   0.4984605), wk =   0.0208333
        k(   10) = (   0.0000000   0.2500000  -0.7476908), wk =   0.0208333
        k(   11) = (   0.0000000   0.2500000  -0.4984605), wk =   0.0208333
        k(   12) = (   0.0000000   0.2500000  -0.2492303), wk =   0.0208333
        k(   13) = (   0.0000000  -0.5000000   0.0000000), wk =   0.0208333
        k(   14) = (   0.0000000  -0.5000000   0.2492303), wk =   0.0208333
        k(   15) = (   0.0000000  -0.5000000   0.4984605), wk =   0.0208333
        k(   16) = (   0.0000000  -0.5000000  -0.7476908), wk =   0.0208333
        k(   17) = (   0.0000000  -0.5000000  -0.4984605), wk =   0.0208333
        k(   18) = (   0.0000000  -0.5000000  -0.2492303), wk =   0.0208333
        k(   19) = (   0.0000000  -0.2500000   0.0000000), wk =   0.0208333
        k(   20) = (   0.0000000  -0.2500000   0.2492303), wk =   0.0208333
        k(   21) = (   0.0000000  -0.2500000   0.4984605), wk =   0.0208333
        k(   22) = (   0.0000000  -0.2500000  -0.7476908), wk =   0.0208333
        k(   23) = (   0.0000000  -0.2500000  -0.4984605), wk =   0.0208333
        k(   24) = (   0.0000000  -0.2500000  -0.2492303), wk =   0.0208333
        k(   25) = (   0.2500000   0.0000000   0.0000000), wk =   0.0208333
        k(   26) = (   0.2500000   0.0000000   0.2492303), wk =   0.0208333
        k(   27) = (   0.2500000   0.0000000   0.4984605), wk =   0.0208333
        k(   28) = (   0.2500000   0.0000000  -0.7476908), wk =   0.0208333
        k(   29) = (   0.2500000   0.0000000  -0.4984605), wk =   0.0208333
        k(   30) = (   0.2500000   0.0000000  -0.2492303), wk =   0.0208333
        k(   31) = (   0.2500000   0.2500000   0.0000000), wk =   0.0208333
        k(   32) = (   0.2500000   0.2500000   0.2492303), wk =   0.0208333
        k(   33) = (   0.2500000   0.2500000   0.4984605), wk =   0.0208333
        k(   34) = (   0.2500000   0.2500000  -0.7476908), wk =   0.0208333
        k(   35) = (   0.2500000   0.2500000  -0.4984605), wk =   0.0208333
        k(   36) = (   0.2500000   0.2500000  -0.2492303), wk =   0.0208333
        k(   37) = (   0.2500000  -0.5000000   0.0000000), wk =   0.0208333
        k(   38) = (   0.2500000  -0.5000000   0.2492303), wk =   0.0208333
        k(   39) = (   0.2500000  -0.5000000   0.4984605), wk =   0.0208333
        k(   40) = (   0.2500000  -0.5000000  -0.7476908), wk =   0.0208333
        k(   41) = (   0.2500000  -0.5000000  -0.4984605), wk =   0.0208333
        k(   42) = (   0.2500000  -0.5000000  -0.2492303), wk =   0.0208333
        k(   43) = (   0.2500000  -0.2500000   0.0000000), wk =   0.0208333
        k(   44) = (   0.2500000  -0.2500000   0.2492303), wk =   0.0208333
        k(   45) = (   0.2500000  -0.2500000   0.4984605), wk =   0.0208333
        k(   46) = (   0.2500000  -0.2500000  -0.7476908), wk =   0.0208333
        k(   47) = (   0.2500000  -0.2500000  -0.4984605), wk =   0.0208333
        k(   48) = (   0.2500000  -0.2500000  -0.2492303), wk =   0.0208333
        k(   49) = (  -0.5000000   0.0000000   0.0000000), wk =   0.0208333
        k(   50) = (  -0.5000000   0.0000000   0.2492303), wk =   0.0208333
        k(   51) = (  -0.5000000   0.0000000   0.4984605), wk =   0.0208333
        k(   52) = (  -0.5000000   0.0000000  -0.7476908), wk =   0.0208333
        k(   53) = (  -0.5000000   0.0000000  -0.4984605), wk =   0.0208333
        k(   54) = (  -0.5000000   0.0000000  -0.2492303), wk =   0.0208333
        k(   55) = (  -0.5000000   0.2500000   0.0000000), wk =   0.0208333
        k(   56) = (  -0.5000000   0.2500000   0.2492303), wk =   0.0208333
        k(   57) = (  -0.5000000   0.2500000   0.4984605), wk =   0.0208333
        k(   58) = (  -0.5000000   0.2500000  -0.7476908), wk =   0.0208333
        k(   59) = (  -0.5000000   0.2500000  -0.4984605), wk =   0.0208333
        k(   60) = (  -0.5000000   0.2500000  -0.2492303), wk =   0.0208333
        k(   61) = (  -0.5000000  -0.5000000   0.0000000), wk =   0.0208333
        k(   62) = (  -0.5000000  -0.5000000   0.2492303), wk =   0.0208333
        k(   63) = (  -0.5000000  -0.5000000   0.4984605), wk =   0.0208333
        k(   64) = (  -0.5000000  -0.5000000  -0.7476908), wk =   0.0208333
        k(   65) = (  -0.5000000  -0.5000000  -0.4984605), wk =   0.0208333
        k(   66) = (  -0.5000000  -0.5000000  -0.2492303), wk =   0.0208333
        k(   67) = (  -0.5000000  -0.2500000   0.0000000), wk =   0.0208333
        k(   68) = (  -0.5000000  -0.2500000   0.2492303), wk =   0.0208333
        k(   69) = (  -0.5000000  -0.2500000   0.4984605), wk =   0.0208333
        k(   70) = (  -0.5000000  -0.2500000  -0.7476908), wk =   0.0208333
        k(   71) = (  -0.5000000  -0.2500000  -0.4984605), wk =   0.0208333
        k(   72) = (  -0.5000000  -0.2500000  -0.2492303), wk =   0.0208333
        k(   73) = (  -0.2500000   0.0000000   0.0000000), wk =   0.0208333
        k(   74) = (  -0.2500000   0.0000000   0.2492303), wk =   0.0208333
        k(   75) = (  -0.2500000   0.0000000   0.4984605), wk =   0.0208333
        k(   76) = (  -0.2500000   0.0000000  -0.7476908), wk =   0.0208333
        k(   77) = (  -0.2500000   0.0000000  -0.4984605), wk =   0.0208333
        k(   78) = (  -0.2500000   0.0000000  -0.2492303), wk =   0.0208333
        k(   79) = (  -0.2500000   0.2500000   0.0000000), wk =   0.0208333
        k(   80) = (  -0.2500000   0.2500000   0.2492303), wk =   0.0208333
        k(   81) = (  -0.2500000   0.2500000   0.4984605), wk =   0.0208333
        k(   82) = (  -0.2500000   0.2500000  -0.7476908), wk =   0.0208333
        k(   83) = (  -0.2500000   0.2500000  -0.4984605), wk =   0.0208333
        k(   84) = (  -0.2500000   0.2500000  -0.2492303), wk =   0.0208333
        k(   85) = (  -0.2500000  -0.5000000   0.0000000), wk =   0.0208333
        k(   86) = (  -0.2500000  -0.5000000   0.2492303), wk =   0.0208333
        k(   87) = (  -0.2500000  -0.5000000   0.4984605), wk =   0.0208333
        k(   88) = (  -0.2500000  -0.5000000  -0.7476908), wk =   0.0208333
        k(   89) = (  -0.2500000  -0.5000000  -0.4984605), wk =   0.0208333
        k(   90) = (  -0.2500000  -0.5000000  -0.2492303), wk =   0.0208333
        k(   91) = (  -0.2500000  -0.2500000   0.0000000), wk =   0.0208333
        k(   92) = (  -0.2500000  -0.2500000   0.2492303), wk =   0.0208333
        k(   93) = (  -0.2500000  -0.2500000   0.4984605), wk =   0.0208333
        k(   94) = (  -0.2500000  -0.2500000  -0.7476908), wk =   0.0208333
        k(   95) = (  -0.2500000  -0.2500000  -0.4984605), wk =   0.0208333
        k(   96) = (  -0.2500000  -0.2500000  -0.2492303), wk =   0.0208333

     Dense  grid:   590787 G-vectors     FFT dimensions: ( 120, 120,  80)

     Smooth grid:   208901 G-vectors     FFT dimensions: (  90,  90,  60)

     Estimated max dynamical RAM per process >       5.17 GB

     Initial potential from superposition of free atoms

     starting charge      91.9868, renormalised to      96.0000
     Starting wfcs are  114 randomized atomic wfcs

     total cpu time spent up to now is        7.3 secs

     Self-consistent Calculation

     iteration #  1     ecut=    60.00 Ry     beta= 0.30
     Davidson diagonalization with overlap
     ethr =  1.00E-02,  avg # of iterations =  4.2

     total cpu time spent up to now is       20.9 secs

     total energy              =   -1186.53665164 Ry
     estimated scf accuracy    <      27.05313051 Ry

     iteration #  2     ecut=    60.00 Ry     beta= 0.30
     Davidson diagonalization with overlap
     ethr =  1.00E-02,  avg # of iterations =  3.0

     total cpu time spent up to now is       30.5 secs

     total energy              =   -1194.18893535 Ry
     estimated scf accuracy    <      24.80500408 Ry

     iteration #  3     ecut=    60.00 Ry     beta= 0.30
     Davidson diagonalization with overlap
     ethr =  1.00E-02,  avg # of iterations =  2.0

     total cpu time spent up to now is       38.4 secs

     total energy              =   -1194.79727619 Ry
     estimated scf accuracy    <       3.98558373 Ry

     iteration #  4     ecut=    60.00 Ry     beta= 0.30
     Davidson diagonalization with overlap
     ethr =  4.15E-03,  avg # of iterations =  2.0

     total cpu time spent up to now is       46.1 secs

     WARNING: integrated charge=    96.00011466, expected=    96.00000000

     total energy              =   -1195.01361094 Ry
     estimated scf accuracy    <       3.83363849 Ry

     iteration #  5     ecut=    60.00 Ry     beta= 0.30
     Davidson diagonalization with overlap
     ethr =  3.99E-03,  avg # of iterations =  1.0

     total cpu time spent up to now is       52.6 secs

     WARNING: integrated charge=    96.00055373, expected=    96.00000000

     total energy              =   -1195.12423734 Ry
     estimated scf accuracy    <       5.15901764 Ry

     iteration #  6     ecut=    60.00 Ry     beta= 0.30
     Davidson diagonalization with overlap
     ethr =  3.99E-03,  avg # of iterations =  1.0

     total cpu time spent up to now is       59.0 secs

     WARNING: integrated charge=    96.00057274, expected=    96.00000000

     total energy              =   -1195.15500375 Ry
     estimated scf accuracy    <       1.05640577 Ry

     iteration #  7     ecut=    60.00 Ry     beta= 0.30
     Davidson diagonalization with overlap
     ethr =  1.10E-03,  avg # of iterations =  1.2

     total cpu time spent up to now is       66.5 secs

     WARNING: integrated charge=    96.00034843, expected=    96.00000000

     total energy              =   -1195.18369734 Ry
     estimated scf accuracy    <       1.02303640 Ry

     iteration #  8     ecut=    60.00 Ry     beta= 0.30
     Davidson diagonalization with overlap
     ethr =  1.07E-03,  avg # of iterations =  1.0

     total cpu time spent up to now is       72.9 secs

     WARNING: integrated charge=    96.00020812, expected=    96.00000000

     total energy              =   -1195.19876861 Ry
     estimated scf accuracy    <       0.00992757 Ry

     iteration #  9     ecut=    60.00 Ry     beta= 0.30
     Davidson diagonalization with overlap
     c_bands:  1 eigenvalues not converged
     c_bands:  1 eigenvalues not converged
     c_bands:  1 eigenvalues not converged
     ethr =  1.03E-05,  avg # of iterations = 12.1

     total cpu time spent up to now is      102.9 secs

     WARNING: integrated charge=    96.00011723, expected=    96.00000000

     total energy              =   -1195.19960023 Ry
     estimated scf accuracy    <       0.00329581 Ry

     iteration # 10     ecut=    60.00 Ry     beta= 0.30
     Davidson diagonalization with overlap
     ethr =  3.43E-06,  avg # of iterations =  4.9

     total cpu time spent up to now is      115.5 secs

     WARNING: integrated charge=    96.00003479, expected=    96.00000000

     total energy              =   -1195.20020052 Ry
     estimated scf accuracy    <       0.00016306 Ry

     iteration # 11     ecut=    60.00 Ry     beta= 0.30
     Davidson diagonalization with overlap
     ethr =  1.70E-07,  avg # of iterations =  4.5

     total cpu time spent up to now is      129.6 secs

     WARNING: integrated charge=    96.00001385, expected=    96.00000000

     total energy              =   -1195.20029344 Ry
     estimated scf accuracy    <       0.00033674 Ry

     iteration # 12     ecut=    60.00 Ry     beta= 0.30
     Davidson diagonalization with overlap
     ethr =  1.70E-07,  avg # of iterations =  1.0

     total cpu time spent up to now is      136.1 secs

     total energy              =   -1195.20029945 Ry
     estimated scf accuracy    <       0.00010342 Ry

     iteration # 13     ecut=    60.00 Ry     beta= 0.30
     Davidson diagonalization with overlap
     ethr =  1.08E-07,  avg # of iterations =  1.0

     total cpu time spent up to now is      142.5 secs

     total energy              =   -1195.20030265 Ry
     estimated scf accuracy    <       0.00000858 Ry

     iteration # 14     ecut=    60.00 Ry     beta= 0.30
     Davidson diagonalization with overlap
     ethr =  8.94E-09,  avg # of iterations =  2.0

     total cpu time spent up to now is      150.3 secs

     total energy              =   -1195.20030369 Ry
     estimated scf accuracy    <       0.00000025 Ry

     iteration # 15     ecut=    60.00 Ry     beta= 0.30
     Davidson diagonalization with overlap
     ethr =  2.59E-10,  avg # of iterations =  5.0

     total cpu time spent up to now is      165.7 secs

     total energy              =   -1195.20030395 Ry
     estimated scf accuracy    <       0.00000037 Ry

     iteration # 16     ecut=    60.00 Ry     beta= 0.30
     Davidson diagonalization with overlap
     ethr =  2.59E-10,  avg # of iterations =  1.2

     total cpu time spent up to now is      173.1 secs

     total energy              =   -1195.20030397 Ry
     estimated scf accuracy    <       0.00000005 Ry

     iteration # 17     ecut=    60.00 Ry     beta= 0.30
     Davidson diagonalization with overlap
     ethr =  5.08E-11,  avg # of iterations =  2.0

     total cpu time spent up to now is      180.9 secs

     total energy              =   -1195.20030398 Ry
     estimated scf accuracy    <       0.00000002 Ry

     iteration # 18     ecut=    60.00 Ry     beta= 0.30
     Davidson diagonalization with overlap
     ethr =  2.43E-11,  avg # of iterations =  1.0

     total cpu time spent up to now is      187.4 secs

     total energy              =   -1195.20030398 Ry
     estimated scf accuracy    <       0.00000004 Ry

     iteration # 19     ecut=    60.00 Ry     beta= 0.30
     Davidson diagonalization with overlap
     ethr =  2.43E-11,  avg # of iterations =  1.0

     total cpu time spent up to now is      193.9 secs

     total energy              =   -1195.20030398 Ry
     estimated scf accuracy    <          3.3E-09 Ry

     iteration # 20     ecut=    60.00 Ry     beta= 0.30
     Davidson diagonalization with overlap
     ethr =  3.43E-12,  avg # of iterations =  1.6

     total cpu time spent up to now is      201.6 secs

     End of self-consistent calculation

          k = 0.0000 0.0000 0.0000 ( 26017 PWs)   bands (ev):

  -100.8467-100.8091 -61.3879 -61.3167 -61.2567 -61.2190 -61.0924 -61.0917
    -5.7927  -4.1942  -4.1873  -4.1797  -4.1720  -3.1976  -3.1936  -2.3998
    -2.3850  -2.0583  -2.0523  -1.6514  -1.6327  -1.5773  -1.5710  -1.4149
    -1.3436  -1.2020  -1.1798  -0.8431  -0.8027  -0.7887  -0.5589  -0.4848
    -0.3683  -0.2982  -0.1967   0.0950   0.1192   0.1355   0.3082   0.3217
     0.7016   0.7236   0.8810   0.8931   0.9007   1.0120   1.8043   2.0481
     2.2036   2.3134   4.4214   4.4348   4.9719   4.9745   5.6102   5.6137
     5.9367   5.9408

          k = 0.0000 0.0000 0.2492 ( 26092 PWs)   bands (ev):

  -100.8467-100.8091 -61.3879 -61.3167 -61.2567 -61.2190 -61.0924 -61.0917
    -5.6881  -4.0962  -4.0907  -4.0846  -4.0744  -3.3478  -3.1041  -3.0827
    -2.1042  -2.0794  -2.0658  -2.0214  -1.9660  -1.9478  -1.6101  -1.5229
    -1.4035  -1.0997  -1.0502  -0.7619  -0.7181  -0.7010  -0.5592  -0.3573
    -0.2098  -0.1640  -0.0253   0.1155   0.1480   0.1587   0.2586   0.2701
     0.7287   0.7302   0.8854   0.8952   0.9013   1.0122   1.8118   2.0390
     2.1413   2.3584   4.7883   4.8046   5.3318   5.3377   5.6372   5.7137
     5.8690   5.9281

          k = 0.0000 0.0000 0.4985 ( 26112 PWs)   bands (ev):

  -100.8467-100.8091 -61.3879 -61.3167 -61.2567 -61.2190 -61.0924 -61.0917
    -5.3770  -4.1780  -3.8075  -3.8053  -3.8043  -3.7846  -2.8464  -2.8425
    -2.7500  -2.7367  -2.7233  -2.6929  -1.9601  -1.9424  -1.7834  -1.7739
    -1.1873  -1.1558  -0.9736  -0.6982  -0.6149  -0.5700  -0.3825  -0.3339
    -0.1576   0.1299   0.1321   0.1909   0.2000   0.2554   0.2607   0.2695
     0.7460   0.7580   0.8884   0.8997   0.9090   1.0131   1.7437   2.0378
     2.1172   2.4660   5.5293   5.6972   5.7893   5.8497   6.0113   6.0906
     6.1361   6.1496

          k = 0.0000 0.0000-0.7477 ( 26116 PWs)   bands (ev):

  -100.8467-100.8091 -61.3879 -61.3167 -61.2567 -61.2190 -61.0924 -61.0917
    -4.8747  -4.8608  -3.4130  -3.4065  -3.3615  -3.3551  -3.3250  -3.2909
    -3.2806  -3.2537  -2.4953  -2.4842  -2.3817  -2.3698  -1.5846  -1.5788
    -1.3420  -1.3381  -0.9431  -0.7246  -0.6264  -0.4585  -0.2283  -0.2160
    -0.0321   0.0095   0.0301   0.2237   0.2760   0.3295   0.3421   0.3454
     0.7543   0.7703   0.8874   0.9023   0.9162   1.0140   1.6925   1.9845
     2.1776   2.5181   5.5630   5.6828   6.4186   6.4584   6.4827   6.4873
     6.5597   6.5851

          k = 0.0000 0.0000-0.4985 ( 26112 PWs)   bands (ev):

  -100.8467-100.8091 -61.3879 -61.3167 -61.2567 -61.2190 -61.0924 -61.0917
    -5.3770  -4.1780  -3.8075  -3.8053  -3.8043  -3.7846  -2.8464  -2.8425
    -2.7500  -2.7367  -2.7233  -2.6929  -1.9601  -1.9424  -1.7834  -1.7739
    -1.1873  -1.1558  -0.9736  -0.6982  -0.6149  -0.5700  -0.3825  -0.3339
    -0.1576   0.1299   0.1321   0.1909   0.2000   0.2554   0.2607   0.2695
     0.7460   0.7580   0.8884   0.8997   0.9090   1.0131   1.7437   2.0378
     2.1172   2.4660   5.5293   5.6972   5.7893   5.8497   6.0113   6.0906
     6.1361   6.1496

          k = 0.0000 0.0000-0.2492 ( 26092 PWs)   bands (ev):

  -100.8467-100.8091 -61.3879 -61.3167 -61.2567 -61.2190 -61.0924 -61.0917
    -5.6881  -4.0962  -4.0907  -4.0846  -4.0744  -3.3478  -3.1041  -3.0827
    -2.1042  -2.0794  -2.0658  -2.0214  -1.9660  -1.9478  -1.6101  -1.5229
    -1.4035  -1.0997  -1.0502  -0.7619  -0.7181  -0.7010  -0.5592  -0.3573
    -0.2098  -0.1640  -0.0253   0.1155   0.1480   0.1587   0.2586   0.2701
     0.7287   0.7302   0.8854   0.8952   0.9013   1.0122   1.8118   2.0390
     2.1413   2.3584   4.7883   4.8046   5.3318   5.3377   5.6372   5.7137
     5.8690   5.9281

          k = 0.0000 0.2500 0.0000 ( 26112 PWs)   bands (ev):

  -100.8467-100.8091 -61.3879 -61.3167 -61.2567 -61.2190 -61.0924 -61.0917
    -5.6892  -4.8740  -4.0994  -4.0892  -3.4588  -3.4554  -3.3280  -2.3361
    -2.3204  -1.8365  -1.8204  -1.7001  -1.6826  -1.5719  -1.5679  -1.4373
    -1.3589  -1.3248  -1.1804  -1.1406  -0.7975  -0.7183  -0.5558  -0.3797
    -0.3511  -0.2720  -0.2503  -0.2091   0.0596   0.2296   0.2583   0.3485
     0.6980   0.7175   0.8699   0.9046   0.9186   1.0146   1.7391   2.0675
     2.1915   2.3600   4.5312   4.5507   5.2478   5.2640   5.4917   5.5327
     5.6622   5.7730

          k = 0.0000 0.2500 0.2492 ( 26094 PWs)   bands (ev):

  -100.8467-100.8091 -61.3879 -61.3167 -61.2567 -61.2190 -61.0924 -61.0917
    -5.5850  -4.7733  -4.0030  -3.9933  -3.3851  -3.3629  -3.2403  -3.2205
    -2.5749  -2.0053  -1.9938  -1.7565  -1.6809  -1.5897  -1.5628  -1.5239
    -1.4019  -1.3279  -1.1154  -1.0089  -0.7345  -0.6710  -0.4975  -0.3385
    -0.2404  -0.2062  -0.1582  -0.0489   0.0784   0.1531   0.2688   0.3668
     0.7177   0.7305   0.8738   0.9080   0.9224   1.0143   1.7469   2.0332
     2.1515   2.4077   4.7599   4.7755   5.4759   5.5337   5.6275   5.7015
     5.7467   5.8338

          k = 0.0000 0.2500 0.4985 ( 26099 PWs)   bands (ev):

  -100.8467-100.8091 -61.3879 -61.3167 -61.2567 -61.2190 -61.0924 -61.0917
    -5.2752  -4.4748  -4.0827  -3.7189  -3.7121  -3.3342  -3.0950  -3.0921
    -2.9764  -2.6583  -2.6413  -2.1584  -2.1383  -2.0152  -1.4805  -1.4369
    -1.2258  -1.1081  -1.0341  -0.8230  -0.6253  -0.5291  -0.4692  -0.3091
    -0.1760  -0.0241   0.0249   0.0812   0.1072   0.1629   0.2302   0.3982
     0.7487   0.7634   0.8830   0.9124   0.9252   1.0142   1.7332   1.9892
     2.1087   2.4729   5.4911   5.5367   5.7503   5.8261   5.8581   5.9085
     6.0572   6.3242

          k = 0.0000 0.2500-0.7477 ( 26088 PWs)   bands (ev):

  -100.8467-100.8091 -61.3879 -61.3167 -61.2567 -61.2190 -61.0924 -61.0917
    -4.7758  -4.7610  -4.0012  -3.9803  -3.2832  -3.2712  -3.2357  -3.2270
    -2.6942  -2.6899  -2.6539  -2.6470  -2.5515  -2.5213  -1.3811  -1.3288
    -1.1507  -1.0803  -0.9425  -0.8653  -0.6846  -0.6083  -0.4006  -0.2441
    -0.1021  -0.0170   0.1056   0.1327   0.1444   0.1840   0.3085   0.3789
     0.7656   0.7788   0.8867   0.9122   0.9231   1.0145   1.6912   1.9396
     2.1449   2.5023   5.7748   5.8941   6.3413   6.3622   6.3777   6.4544
     6.4831   6.5408

          k = 0.0000 0.2500-0.4985 ( 26099 PWs)   bands (ev):

  -100.8467-100.8091 -61.3879 -61.3167 -61.2567 -61.2190 -61.0924 -61.0917
    -5.2751  -4.4752  -4.0828  -3.7223  -3.7076  -3.3342  -3.0999  -3.0907
    -2.9736  -2.6506  -2.6438  -2.1582  -2.1474  -2.0180  -1.4912  -1.4586
    -1.1695  -1.1138  -0.9827  -0.8212  -0.6899  -0.5778  -0.4158  -0.2928
    -0.2207  -0.0285   0.0357   0.0608   0.1026   0.1663   0.2758   0.3985
     0.7510   0.7613   0.8844   0.9038   0.9187   1.0147   1.7327   1.9966
     2.1201   2.4630   5.4943   5.5407   5.7417   5.8301   5.8633   5.8847
     6.0456   6.3655

          k = 0.0000 0.2500-0.2492 ( 26094 PWs)   bands (ev):

  -100.8467-100.8091 -61.3879 -61.3167 -61.2567 -61.2190 -61.0924 -61.0917
    -5.5849  -4.7734  -4.0034  -3.9927  -3.3836  -3.3661  -3.2412  -3.2174
    -2.5735  -2.0083  -1.9949  -1.7512  -1.7067  -1.5807  -1.5676  -1.5236
    -1.4052  -1.3121  -1.0988  -0.9955  -0.7480  -0.6358  -0.5421  -0.3385
    -0.2440  -0.2124  -0.1594  -0.0457   0.0911   0.1595   0.2445   0.3711
     0.7171   0.7314   0.8756   0.9029   0.9165   1.0147   1.7722   2.0467
     2.1513   2.3871   4.7607   4.7795   5.4641   5.5325   5.6161   5.6787
     5.7450   5.8701

          k = 0.0000-0.5000 0.0000 ( 26106 PWs)   bands (ev):

  -100.8467-100.8091 -61.3879 -61.3167 -61.2567 -61.2190 -61.0924 -61.0917
    -5.3877  -5.3735  -3.8624  -3.8587  -3.8145  -3.8038  -2.4218  -2.3435
    -2.1671  -2.1528  -2.0784  -2.0619  -1.5410  -1.5243  -1.4346  -1.4214
    -1.2363  -1.1866  -1.0799  -1.0086  -0.8784  -0.8697  -0.6309  -0.5299
    -0.4512  -0.4015  -0.1927  -0.1092   0.0148   0.1044   0.1798   0.4497
     0.6957   0.7118   0.8620   0.9167   0.9278   1.0179   1.6928   2.0814
     2.1792   2.4091   4.8409   4.8837   5.0513   5.0807   5.4009   5.5619
     5.9352   5.9658

          k = 0.0000-0.5000 0.2492 ( 26090 PWs)   bands (ev):

  -100.8467-100.8091 -61.3879 -61.3167 -61.2567 -61.2190 -61.0924 -61.0917
    -5.2854  -5.2699  -3.7677  -3.7637  -3.7217  -3.7105  -2.9975  -2.9684
    -2.3356  -2.2679  -1.8715  -1.8518  -1.8293  -1.8130  -1.4373  -1.3563
    -1.2087  -1.1058  -1.0056  -0.9102  -0.7918  -0.7733  -0.5627  -0.4737
    -0.3818  -0.3052  -0.2249  -0.1875   0.0322   0.1317   0.2560   0.4695
     0.7093   0.7273   0.8667   0.9171   0.9287   1.0173   1.7211   2.0301
     2.1714   2.4408   4.9051   4.9385   5.1058   5.1253   5.4991   5.6425
     6.0611   6.1549

          k = 0.0000-0.5000 0.4985 ( 26104 PWs)   bands (ev):

  -100.8467-100.8091 -61.3879 -61.3167 -61.2567 -61.2190 -61.0924 -61.0917
    -4.9812  -4.9624  -3.8166  -3.7915  -3.4838  -3.4713  -3.4427  -3.4314
    -2.4688  -2.4566  -2.4356  -2.4218  -2.0720  -2.0342  -1.3955  -1.3434
    -1.1958  -1.0765  -0.9026  -0.7599  -0.6043  -0.5678  -0.4063  -0.3778
    -0.2617  -0.2402  -0.1569  -0.0825   0.0369   0.1119   0.2653   0.4653
     0.7563   0.7639   0.8744   0.9177   0.9310   1.0161   1.7234   1.9504
     2.1128   2.4749   5.4113   5.4403   5.5953   5.6142   5.8119   5.9239
     6.1926   6.2950

          k = 0.0000-0.5000-0.7477 ( 26120 PWs)   bands (ev):

  -100.8467-100.8091 -61.3879 -61.3167 -61.2567 -61.2190 -61.0924 -61.0917
    -4.4972  -4.4753  -4.4643  -4.4537  -3.0675  -3.0600  -3.0415  -3.0356
    -3.0108  -2.9973  -2.9502  -2.9471  -1.7988  -1.7205  -1.7076  -1.6073
    -1.2159  -1.0523  -0.9012  -0.6691  -0.4541  -0.4487  -0.3764  -0.3691
    -0.2571  -0.1672  -0.1170  -0.0288   0.0174   0.1881   0.2494   0.4298
     0.7775   0.7870   0.8771   0.9183   0.9330   1.0154   1.6882   1.8937
     2.1125   2.4896   6.1054   6.2166   6.2449   6.2738   6.3608   6.3736
     6.3840   6.4036

          k = 0.0000-0.5000-0.4985 ( 26104 PWs)   bands (ev):

  -100.8467-100.8091 -61.3879 -61.3167 -61.2567 -61.2190 -61.0924 -61.0917
    -4.9812  -4.9624  -3.8166  -3.7915  -3.4838  -3.4713  -3.4427  -3.4314
    -2.4688  -2.4566  -2.4356  -2.4218  -2.0720  -2.0342  -1.3955  -1.3434
    -1.1958  -1.0765  -0.9026  -0.7599  -0.6043  -0.5678  -0.4063  -0.3778
    -0.2617  -0.2402  -0.1569  -0.0825   0.0369   0.1119   0.2653   0.4653
     0.7563   0.7639   0.8744   0.9177   0.9310   1.0161   1.7234   1.9504
     2.1128   2.4749   5.4113   5.4403   5.5953   5.6142   5.8119   5.9239
     6.1926   6.2950

          k = 0.0000-0.5000-0.2492 ( 26090 PWs)   bands (ev):

  -100.8467-100.8091 -61.3879 -61.3167 -61.2567 -61.2190 -61.0924 -61.0917
    -5.2854  -5.2699  -3.7677  -3.7637  -3.7217  -3.7105  -2.9975  -2.9684
    -2.3356  -2.2679  -1.8715  -1.8518  -1.8293  -1.8130  -1.4373  -1.3563
    -1.2087  -1.1058  -1.0056  -0.9102  -0.7918  -0.7733  -0.5627  -0.4737
    -0.3818  -0.3052  -0.2249  -0.1875   0.0322   0.1317   0.2560   0.4695
     0.7093   0.7273   0.8667   0.9171   0.9287   1.0173   1.7211   2.0301
     2.1714   2.4408   4.9051   4.9385   5.1058   5.1253   5.4991   5.6425
     6.0611   6.1549

          k = 0.0000-0.2500 0.0000 ( 26112 PWs)   bands (ev):

  -100.8467-100.8091 -61.3879 -61.3167 -61.2567 -61.2190 -61.0924 -61.0917
    -5.6892  -4.8740  -4.0994  -4.0892  -3.4588  -3.4554  -3.3280  -2.3361
    -2.3204  -1.8365  -1.8204  -1.7001  -1.6826  -1.5719  -1.5679  -1.4373
    -1.3589  -1.3248  -1.1804  -1.1406  -0.7975  -0.7183  -0.5558  -0.3797
    -0.3511  -0.2720  -0.2503  -0.2091   0.0596   0.2296   0.2583   0.3485
     0.6980   0.7175   0.8699   0.9046   0.9186   1.0146   1.7391   2.0675
     2.1915   2.3600   4.5312   4.5507   5.2478   5.2640   5.4917   5.5327
     5.6622   5.7730

          k = 0.0000-0.2500 0.2492 ( 26094 PWs)   bands (ev):

  -100.8467-100.8091 -61.3879 -61.3167 -61.2567 -61.2190 -61.0924 -61.0917
    -5.5849  -4.7734  -4.0034  -3.9927  -3.3836  -3.3661  -3.2412  -3.2174
    -2.5735  -2.0083  -1.9949  -1.7512  -1.7067  -1.5807  -1.5676  -1.5236
    -1.4052  -1.3121  -1.0988  -0.9955  -0.7480  -0.6358  -0.5421  -0.3385
    -0.2440  -0.2124  -0.1594  -0.0457   0.0911   0.1595   0.2445   0.3711
     0.7171   0.7314   0.8756   0.9029   0.9165   1.0147   1.7722   2.0467
     2.1513   2.3871   4.7607   4.7795   5.4641   5.5325   5.6161   5.6787
     5.7450   5.8701

          k = 0.0000-0.2500 0.4985 ( 26099 PWs)   bands (ev):

  -100.8467-100.8091 -61.3879 -61.3167 -61.2567 -61.2190 -61.0924 -61.0917
    -5.2751  -4.4752  -4.0828  -3.7223  -3.7076  -3.3342  -3.0999  -3.0907
    -2.9736  -2.6506  -2.6438  -2.1582  -2.1474  -2.0180  -1.4912  -1.4586
    -1.1695  -1.1138  -0.9827  -0.8212  -0.6899  -0.5778  -0.4158  -0.2928
    -0.2207  -0.0285   0.0357   0.0608   0.1026   0.1663   0.2758   0.3985
     0.7510   0.7613   0.8844   0.9038   0.9187   1.0147   1.7327   1.9966
     2.1201   2.4630   5.4943   5.5407   5.7417   5.8301   5.8633   5.8847
     6.0456   6.3655

          k = 0.0000-0.2500-0.7477 ( 26088 PWs)   bands (ev):

  -100.8467-100.8091 -61.3879 -61.3167 -61.2567 -61.2190 -61.0924 -61.0917
    -4.7758  -4.7610  -4.0012  -3.9803  -3.2832  -3.2712  -3.2357  -3.2270
    -2.6942  -2.6899  -2.6539  -2.6470  -2.5515  -2.5213  -1.3811  -1.3288
    -1.1507  -1.0803  -0.9425  -0.8653  -0.6846  -0.6083  -0.4006  -0.2441
    -0.1021  -0.0170   0.1056   0.1327   0.1444   0.1840   0.3085   0.3789
     0.7656   0.7788   0.8867   0.9122   0.9231   1.0145   1.6912   1.9396
     2.1449   2.5023   5.7748   5.8941   6.3413   6.3622   6.3777   6.4544
     6.4831   6.5408

          k = 0.0000-0.2500-0.4985 ( 26099 PWs)   bands (ev):

  -100.8467-100.8091 -61.3879 -61.3167 -61.2567 -61.2190 -61.0924 -61.0917
    -5.2752  -4.4748  -4.0827  -3.7189  -3.7121  -3.3342  -3.0950  -3.0921
    -2.9764  -2.6583  -2.6413  -2.1584  -2.1383  -2.0152  -1.4805  -1.4369
    -1.2258  -1.1081  -1.0341  -0.8230  -0.6253  -0.5291  -0.4692  -0.3091
    -0.1760  -0.0241   0.0249   0.0812   0.1072   0.1629   0.2302   0.3982
     0.7487   0.7634   0.8830   0.9124   0.9252   1.0142   1.7332   1.9892
     2.1087   2.4729   5.4911   5.5367   5.7503   5.8261   5.8581   5.9085
     6.0572   6.3242

          k = 0.0000-0.2500-0.2492 ( 26094 PWs)   bands (ev):

  -100.8467-100.8091 -61.3879 -61.3167 -61.2567 -61.2190 -61.0924 -61.0917
    -5.5850  -4.7733  -4.0030  -3.9933  -3.3851  -3.3629  -3.2403  -3.2205
    -2.5749  -2.0053  -1.9938  -1.7565  -1.6809  -1.5897  -1.5628  -1.5239
    -1.4019  -1.3279  -1.1154  -1.0089  -0.7345  -0.6710  -0.4975  -0.3385
    -0.2404  -0.2062  -0.1582  -0.0489   0.0784   0.1531   0.2688   0.3668
     0.7177   0.7305   0.8738   0.9080   0.9224   1.0143   1.7469   2.0332
     2.1515   2.4077   4.7599   4.7755   5.4759   5.5337   5.6275   5.7015
     5.7467   5.8338

          k = 0.2500 0.0000 0.0000 ( 26112 PWs)   bands (ev):

  -100.8467-100.8091 -61.3879 -61.3167 -61.2567 -61.2190 -61.0924 -61.0917
    -5.6892  -4.8740  -4.0994  -4.0892  -3.4588  -3.4554  -3.3280  -2.3361
    -2.3204  -1.8365  -1.8204  -1.7001  -1.6826  -1.5719  -1.5679  -1.4373
    -1.3589  -1.3248  -1.1804  -1.1406  -0.7975  -0.7183  -0.5558  -0.3797
    -0.3511  -0.2720  -0.2503  -0.2091   0.0596   0.2296   0.2583   0.3485
     0.6980   0.7175   0.8699   0.9046   0.9186   1.0146   1.7391   2.0675
     2.1915   2.3600   4.5312   4.5507   5.2478   5.2640   5.4917   5.5327
     5.6622   5.7730

          k = 0.2500 0.0000 0.2492 ( 26094 PWs)   bands (ev):

  -100.8467-100.8091 -61.3879 -61.3167 -61.2567 -61.2190 -61.0924 -61.0917
    -5.5850  -4.7733  -4.0030  -3.9933  -3.3851  -3.3629  -3.2403  -3.2205
    -2.5749  -2.0053  -1.9938  -1.7565  -1.6809  -1.5897  -1.5628  -1.5239
    -1.4019  -1.3279  -1.1154  -1.0089  -0.7345  -0.6710  -0.4975  -0.3385
    -0.2404  -0.2062  -0.1582  -0.0489   0.0784   0.1531   0.2688   0.3668
     0.7177   0.7305   0.8738   0.9080   0.9224   1.0143   1.7469   2.0332
     2.1515   2.4077   4.7599   4.7755   5.4759   5.5337   5.6275   5.7015
     5.7467   5.8338

          k = 0.2500 0.0000 0.4985 ( 26099 PWs)   bands (ev):

  -100.8467-100.8091 -61.3879 -61.3167 -61.2567 -61.2190 -61.0924 -61.0917
    -5.2752  -4.4748  -4.0827  -3.7189  -3.7121  -3.3342  -3.0950  -3.0921
    -2.9764  -2.6583  -2.6413  -2.1584  -2.1383  -2.0152  -1.4805  -1.4369
    -1.2258  -1.1081  -1.0341  -0.8230  -0.6253  -0.5291  -0.4692  -0.3091
    -0.1760  -0.0241   0.0249   0.0812   0.1072   0.1629   0.2302   0.3982
     0.7487   0.7634   0.8830   0.9124   0.9252   1.0142   1.7332   1.9892
     2.1087   2.4729   5.4911   5.5367   5.7503   5.8261   5.8581   5.9085
     6.0572   6.3242

          k = 0.2500 0.0000-0.7477 ( 26088 PWs)   bands (ev):

  -100.8467-100.8091 -61.3879 -61.3167 -61.2567 -61.2190 -61.0924 -61.0917
    -4.7758  -4.7610  -4.0012  -3.9803  -3.2832  -3.2712  -3.2357  -3.2270
    -2.6942  -2.6899  -2.6539  -2.6470  -2.5515  -2.5213  -1.3811  -1.3288
    -1.1507  -1.0803  -0.9425  -0.8653  -0.6846  -0.6083  -0.4006  -0.2441
    -0.1021  -0.0170   0.1056   0.1327   0.1444   0.1840   0.3085   0.3789
     0.7656   0.7788   0.8867   0.9122   0.9231   1.0145   1.6912   1.9396
     2.1449   2.5023   5.7748   5.8941   6.3413   6.3622   6.3777   6.4544
     6.4831   6.5408

          k = 0.2500 0.0000-0.4985 ( 26099 PWs)   bands (ev):

  -100.8467-100.8091 -61.3879 -61.3167 -61.2567 -61.2190 -61.0924 -61.0917
    -5.2751  -4.4752  -4.0828  -3.7223  -3.7076  -3.3342  -3.0999  -3.0907
    -2.9736  -2.6506  -2.6438  -2.1582  -2.1474  -2.0180  -1.4912  -1.4586
    -1.1695  -1.1138  -0.9827  -0.8212  -0.6899  -0.5778  -0.4158  -0.2928
    -0.2207  -0.0285   0.0357   0.0608   0.1026   0.1663   0.2758   0.3985
     0.7510   0.7613   0.8844   0.9038   0.9187   1.0147   1.7327   1.9966
     2.1201   2.4630   5.4943   5.5407   5.7417   5.8301   5.8633   5.8847
     6.0456   6.3655

          k = 0.2500 0.0000-0.2492 ( 26094 PWs)   bands (ev):

  -100.8467-100.8091 -61.3879 -61.3167 -61.2567 -61.2190 -61.0924 -61.0917
    -5.5849  -4.7734  -4.0034  -3.9927  -3.3836  -3.3661  -3.2412  -3.2174
    -2.5735  -2.0083  -1.9949  -1.7512  -1.7067  -1.5807  -1.5676  -1.5236
    -1.4052  -1.3121  -1.0988  -0.9955  -0.7480  -0.6358  -0.5421  -0.3385
    -0.2440  -0.2124  -0.1594  -0.0457   0.0911   0.1595   0.2445   0.3711
     0.7171   0.7314   0.8756   0.9029   0.9165   1.0147   1.7722   2.0467
     2.1513   2.3871   4.7607   4.7795   5.4641   5.5325   5.6161   5.6787
     5.7450   5.8701

          k = 0.2500 0.2500 0.0000 ( 26078 PWs)   bands (ev):

  -100.8467-100.8091 -61.3879 -61.3167 -61.2567 -61.2190 -61.0924 -61.0917
    -5.5864  -4.7771  -4.7770  -4.0344  -3.2700  -3.2502  -2.9967  -2.2759
    -2.2365  -1.9206  -1.8120  -1.7752  -1.7689  -1.7048  -1.5931  -1.4550
    -1.3849  -1.2295  -1.0745  -1.0377  -1.0318  -0.7886  -0.6353  -0.6347
    -0.3587  -0.2453  -0.2047  -0.1310   0.1520   0.2330   0.2773   0.3229
     0.6913   0.7083   0.8480   0.9216   0.9230   1.0162   1.6996   2.0755
     2.2149   2.3970   4.3784   5.0908   5.1124   5.3024   5.5056   5.6146
     5.7237   5.8125

          k = 0.2500 0.2500 0.2492 ( 26113 PWs)   bands (ev):

  -100.8467-100.8091 -61.3879 -61.3167 -61.2567 -61.2190 -61.0924 -61.0917
    -5.4826  -4.6781  -4.6756  -3.9388  -3.1895  -3.1614  -3.1546  -2.8975
    -2.5170  -2.4780  -1.9843  -1.8503  -1.5969  -1.5197  -1.5074  -1.4171
    -1.3331  -1.2046  -1.0900  -0.9907  -0.9149  -0.6797  -0.5739  -0.5390
    -0.3476  -0.3184  -0.0974  -0.0346   0.1056   0.1528   0.3008   0.3478
     0.7201   0.7254   0.8565   0.9226   0.9242   1.0166   1.7384   2.0610
     2.1345   2.4170   4.6292   5.1912   5.3602   5.3630   5.6737   5.7237
     5.8853   5.9044

          k = 0.2500 0.2500 0.4985 ( 26127 PWs)   bands (ev):

  -100.8467-100.8091 -61.3879 -61.3167 -61.2567 -61.2190 -61.0924 -61.0917
    -5.1742  -4.3847  -4.3757  -3.9897  -3.6507  -3.2693  -3.2409  -2.9138
    -2.8956  -2.6514  -2.5993  -1.9785  -1.9731  -1.8097  -1.6458  -1.3263
    -1.1868  -1.1051  -1.0159  -0.8097  -0.7622  -0.5030  -0.4690  -0.3370
    -0.3343  -0.2834  -0.0479   0.0195   0.0387   0.1949   0.3409   0.3548
     0.7564   0.7637   0.8668   0.9207   0.9276   1.0169   1.7517   2.0058
     2.0900   2.4541   5.2651   5.7016   5.8155   5.8170   6.0305   6.0868
     6.1501   6.2640

          k = 0.2500 0.2500-0.7477 ( 26138 PWs)   bands (ev):

  -100.8467-100.8091 -61.3879 -61.3167 -61.2567 -61.2190 -61.0924 -61.0917
    -4.6775  -4.6623  -3.9433  -3.9203  -3.8690  -3.8547  -3.2076  -3.1933
    -2.5322  -2.5249  -2.4414  -2.4390  -2.3075  -2.2017  -1.4807  -1.2594
    -1.2138  -1.1306  -0.9777  -0.7291  -0.6895  -0.5555  -0.4413  -0.3496
    -0.2498  -0.2180  -0.1561   0.0251   0.1387   0.2946   0.3703   0.3747
     0.7694   0.7791   0.8697   0.9116   0.9321   1.0168   1.6927   1.9509
     2.1195   2.5084   5.9825   6.1359   6.2482   6.3002   6.3218   6.3503
     6.4119   6.5791

          k = 0.2500 0.2500-0.4985 ( 26127 PWs)   bands (ev):

  -100.8467-100.8091 -61.3879 -61.3167 -61.2567 -61.2190 -61.0924 -61.0917
    -5.1740  -4.3846  -4.3762  -3.9902  -3.6511  -3.2698  -3.2414  -2.9055
    -2.8961  -2.6488  -2.6126  -1.9738  -1.9667  -1.8044  -1.6526  -1.3153
    -1.2419  -1.0996  -0.9749  -0.7622  -0.7005  -0.6283  -0.4548  -0.4317
    -0.3564  -0.2170  -0.0470   0.0221   0.0222   0.2308   0.3420   0.4206
     0.7522   0.7536   0.8624   0.9113   0.9314   1.0164   1.6976   2.0055
     2.0883   2.4956   5.2623   5.6524   5.8161   5.8685   6.0363   6.1011
     6.1482   6.2786

          k = 0.2500 0.2500-0.2492 ( 26113 PWs)   bands (ev):

  -100.8467-100.8091 -61.3879 -61.3167 -61.2567 -61.2190 -61.0924 -61.0917
    -5.4825  -4.6780  -4.6759  -3.9391  -3.1954  -3.1615  -3.1481  -2.8966
    -2.5183  -2.4790  -1.9884  -1.8452  -1.5866  -1.5254  -1.5090  -1.4117
    -1.3326  -1.2176  -1.0859  -0.9610  -0.9154  -0.7117  -0.5727  -0.5577
    -0.3478  -0.3316  -0.1004  -0.0147   0.1381   0.1480   0.3046   0.3505
     0.7184   0.7198   0.8522   0.9187   0.9257   1.0160   1.7100   2.0803
     2.1347   2.4284   4.6223   5.2018   5.3497   5.3601   5.6796   5.7192
     5.8877   5.8999

          k = 0.2500-0.5000 0.0000 ( 26098 PWs)   bands (ev):

  -100.8467-100.8091 -61.3879 -61.3167 -61.2567 -61.2190 -61.0924 -61.0917
    -5.2872  -5.2725  -4.5001  -4.4826  -3.0794  -3.0601  -2.3787  -2.3168
    -2.1089  -2.0912  -2.0099  -1.9950  -1.6880  -1.6712  -1.5498  -1.5429
    -1.4232  -1.4012  -1.1227  -1.0555  -0.9974  -0.9538  -0.7092  -0.4747
    -0.3015  -0.2826  -0.0977  -0.0669   0.0566   0.0964   0.1913   0.4310
     0.6846   0.7080   0.8596   0.9207   0.9318   1.0180   1.7229   2.0966
     2.2056   2.4066   4.6665   4.6884   5.2847   5.3131   5.4815   5.5163
     5.7300   5.8292

          k = 0.2500-0.5000 0.2492 ( 26112 PWs)   bands (ev):

  -100.8467-100.8091 -61.3879 -61.3167 -61.2567 -61.2190 -61.0924 -61.0917
    -5.1853  -5.1694  -4.4020  -4.3834  -3.0091  -2.9816  -2.9045  -2.8692
    -2.3306  -2.3217  -2.2337  -2.2102  -1.5382  -1.4814  -1.3961  -1.3490
    -1.2982  -1.2965  -1.0867  -1.0524  -0.8859  -0.8113  -0.6863  -0.4677
    -0.2784  -0.2256  -0.1846  -0.1458   0.0044   0.0962   0.2153   0.4636
     0.7074   0.7250   0.8638   0.9198   0.9333   1.0184   1.7621   2.0397
     2.1554   2.4135   4.8236   4.8823   5.4186   5.4615   5.5555   5.6526
     5.8404   5.9653

          k = 0.2500-0.5000 0.4985 ( 26120 PWs)   bands (ev):

  -100.8467-100.8091 -61.3879 -61.3167 -61.2567 -61.2190 -61.0924 -61.0917
    -4.8826  -4.8634  -4.1127  -4.0923  -3.7187  -3.6886  -3.0190  -2.9936
    -2.7256  -2.7071  -2.0585  -2.0267  -1.8482  -1.8055  -1.4486  -1.3225
    -1.2377  -1.1613  -1.0111  -0.9124  -0.7286  -0.6479  -0.5651  -0.4590
    -0.3140  -0.2620  -0.1025  -0.0881   0.0300   0.0985   0.2649   0.4872
     0.7512   0.7568   0.8724   0.9191   0.9385   1.0179   1.7288   1.9599
     2.1129   2.4681   5.3372   5.3571   5.8269   5.9151   6.0199   6.0747
     6.1448   6.2812

          k = 0.2500-0.5000-0.7477 ( 26148 PWs)   bands (ev):

  -100.8467-100.8091 -61.3879 -61.3167 -61.2567 -61.2190 -61.0924 -61.0917
    -4.4011  -4.3803  -4.3687  -4.3579  -3.6469  -3.6369  -3.6173  -3.6018
    -2.3693  -2.3313  -2.3016  -2.2858  -1.7556  -1.6931  -1.6764  -1.6045
    -1.2340  -1.0818  -0.9858  -0.8373  -0.7099  -0.6380  -0.5126  -0.4645
    -0.3588  -0.2797  -0.1269  -0.0653   0.1166   0.2544   0.3249   0.4473
     0.7638   0.7769   0.8765   0.9210   0.9421   1.0171   1.6632   1.9058
     2.1235   2.5351   6.0662   6.0987   6.2031   6.2497   6.3933   6.5254
     6.5437   6.5748

          k = 0.2500-0.5000-0.4985 ( 26120 PWs)   bands (ev):

  -100.8467-100.8091 -61.3879 -61.3167 -61.2567 -61.2190 -61.0924 -61.0917
    -4.8825  -4.8633  -4.1136  -4.0922  -3.7178  -3.6901  -3.0196  -2.9910
    -2.7317  -2.7025  -2.0629  -2.0307  -1.8352  -1.8082  -1.4036  -1.3421
    -1.2122  -1.1686  -1.0121  -0.9663  -0.7571  -0.6964  -0.5770  -0.4178
    -0.2725  -0.2225  -0.1159  -0.0878  -0.0037   0.1097   0.3400   0.4440
     0.7484   0.7566   0.8708   0.9237   0.9406   1.0169   1.6870   1.9591
     2.0915   2.5151   5.3103   5.3682   5.8485   5.9256   6.0112   6.0643
     6.1578   6.2917

          k = 0.2500-0.5000-0.2492 ( 26112 PWs)   bands (ev):

  -100.8467-100.8091 -61.3879 -61.3167 -61.2567 -61.2190 -61.0924 -61.0917
    -5.1852  -5.1694  -4.4021  -4.3837  -3.0030  -2.9908  -2.9038  -2.8674
    -2.3368  -2.3067  -2.2570  -2.1979  -1.5192  -1.4585  -1.4058  -1.3448
    -1.2974  -1.2851  -1.1273  -1.0229  -0.9235  -0.8765  -0.6669  -0.4437
    -0.2716  -0.2331  -0.1769  -0.1479   0.0174   0.1187   0.2415   0.4366
     0.7060   0.7245   0.8629   0.9227   0.9354   1.0172   1.7132   2.0488
     2.1551   2.4407   4.7985   4.8963   5.4365   5.4650   5.5528   5.6407
     5.8436   5.9952

          k = 0.2500-0.2500 0.0000 ( 26078 PWs)   bands (ev):

  -100.8467-100.8091 -61.3879 -61.3167 -61.2567 -61.2190 -61.0924 -61.0917
    -5.5862  -4.7834  -4.7716  -4.0329  -3.2701  -3.2465  -3.0015  -2.2635
    -2.2446  -1.9152  -1.8761  -1.7849  -1.7198  -1.6671  -1.6173  -1.4552
    -1.3866  -1.1965  -1.1309  -1.0617  -1.0304  -0.7775  -0.6561  -0.4190
    -0.3766  -0.3076  -0.2423  -0.0994   0.0527   0.1940   0.2292   0.3916
     0.6904   0.7174   0.8846   0.9083   0.9210   1.0157   1.7642   2.0892
     2.1828   2.3685   4.3792   5.0688   5.1197   5.3263   5.4402   5.6358
     5.7207   5.7852

          k = 0.2500-0.2500 0.2492 ( 26113 PWs)   bands (ev):

  -100.8467-100.8091 -61.3879 -61.3167 -61.2567 -61.2190 -61.0924 -61.0917
    -5.4825  -4.6832  -4.6715  -3.9376  -3.1870  -3.1683  -3.1456  -2.9022
    -2.5068  -2.4943  -1.9831  -1.8421  -1.5839  -1.5403  -1.5076  -1.4235
    -1.3433  -1.1395  -1.1210  -1.0030  -0.9052  -0.7389  -0.5647  -0.4390
    -0.4000  -0.2929  -0.1012  -0.0284   0.0807   0.1639   0.1998   0.4084
     0.7070   0.7314   0.8859   0.9116   0.9235   1.0155   1.7742   2.0252
     2.1599   2.4021   4.6225   5.2039   5.3480   5.3644   5.6383   5.7108
     5.8423   5.9961

          k = 0.2500-0.2500 0.4985 ( 26127 PWs)   bands (ev):

  -100.8467-100.8091 -61.3879 -61.3167 -61.2567 -61.2190 -61.0924 -61.0917
    -5.1739  -4.3864  -4.3751  -3.9898  -3.6494  -3.2616  -3.2508  -2.9112
    -2.8914  -2.6544  -2.6045  -1.9963  -1.9523  -1.8059  -1.6405  -1.3495
    -1.1663  -1.1076  -0.9905  -0.7752  -0.7493  -0.6335  -0.5244  -0.3507
    -0.2756  -0.2026  -0.1501   0.0424   0.1505   0.1689   0.2736   0.4173
     0.7451   0.7631   0.8894   0.9211   0.9286   1.0149   1.7171   1.9551
     2.1170   2.4848   5.2650   5.6742   5.7923   5.8995   5.9707   6.0917
     6.2102   6.2813

          k = 0.2500-0.2500-0.7477 ( 26138 PWs)   bands (ev):

  -100.8467-100.8091 -61.3879 -61.3167 -61.2567 -61.2190 -61.0924 -61.0917
    -4.6775  -4.6620  -3.9390  -3.9224  -3.8748  -3.8535  -3.2014  -3.1967
    -2.5415  -2.5091  -2.4458  -2.4357  -2.3072  -2.2122  -1.4810  -1.2279
    -1.2005  -1.1437  -0.9428  -0.7809  -0.7593  -0.5310  -0.4259  -0.3737
    -0.3212  -0.1735  -0.1201   0.0871   0.1381   0.2837   0.3546   0.3830
     0.7559   0.7844   0.8919   0.9264   0.9318   1.0145   1.6644   1.8964
     2.1407   2.5328   5.9867   6.1405   6.2377   6.2707   6.3015   6.3571
     6.4236   6.5286

          k = 0.2500-0.2500-0.4985 ( 26127 PWs)   bands (ev):

  -100.8467-100.8091 -61.3879 -61.3167 -61.2567 -61.2190 -61.0924 -61.0917
    -5.1739  -4.3864  -4.3751  -3.9898  -3.6494  -3.2616  -3.2508  -2.9112
    -2.8914  -2.6544  -2.6045  -1.9963  -1.9523  -1.8059  -1.6405  -1.3495
    -1.1663  -1.1076  -0.9905  -0.7752  -0.7493  -0.6335  -0.5244  -0.3507
    -0.2756  -0.2026  -0.1501   0.0424   0.1505   0.1689   0.2736   0.4173
     0.7451   0.7631   0.8894   0.9211   0.9286   1.0149   1.7171   1.9551
     2.1170   2.4848   5.2650   5.6742   5.7923   5.8995   5.9707   6.0917
     6.2102   6.2813

          k = 0.2500-0.2500-0.2492 ( 26113 PWs)   bands (ev):

  -100.8467-100.8091 -61.3879 -61.3167 -61.2567 -61.2190 -61.0924 -61.0917
    -5.4825  -4.6832  -4.6715  -3.9376  -3.1870  -3.1683  -3.1456  -2.9022
    -2.5068  -2.4943  -1.9831  -1.8421  -1.5839  -1.5403  -1.5076  -1.4235
    -1.3433  -1.1395  -1.1210  -1.0030  -0.9052  -0.7389  -0.5647  -0.4390
    -0.4000  -0.2929  -0.1012  -0.0284   0.0807   0.1639   0.1998   0.4084
     0.7070   0.7314   0.8859   0.9116   0.9235   1.0155   1.7742   2.0252
     2.1599   2.4021   4.6225   5.2039   5.3480   5.3644   5.6383   5.7108
     5.8423   5.9962

          k =-0.5000 0.0000 0.0000 ( 26106 PWs)   bands (ev):

  -100.8467-100.8091 -61.3879 -61.3167 -61.2567 -61.2190 -61.0924 -61.0917
    -5.3877  -5.3735  -3.8624  -3.8587  -3.8145  -3.8038  -2.4218  -2.3435
    -2.1671  -2.1528  -2.0784  -2.0619  -1.5410  -1.5243  -1.4346  -1.4214
    -1.2363  -1.1866  -1.0799  -1.0086  -0.8784  -0.8697  -0.6309  -0.5299
    -0.4512  -0.4015  -0.1927  -0.1092   0.0148   0.1044   0.1798   0.4497
     0.6957   0.7118   0.8620   0.9167   0.9278   1.0179   1.6928   2.0814
     2.1792   2.4091   4.8409   4.8837   5.0513   5.0807   5.4009   5.5619
     5.9352   5.9659

          k =-0.5000 0.0000 0.2492 ( 26090 PWs)   bands (ev):

  -100.8467-100.8091 -61.3879 -61.3167 -61.2567 -61.2190 -61.0924 -61.0917
    -5.2854  -5.2699  -3.7677  -3.7637  -3.7217  -3.7105  -2.9975  -2.9684
    -2.3356  -2.2679  -1.8715  -1.8518  -1.8293  -1.8130  -1.4373  -1.3563
    -1.2087  -1.1058  -1.0056  -0.9102  -0.7918  -0.7733  -0.5627  -0.4737
    -0.3818  -0.3052  -0.2249  -0.1875   0.0322   0.1317   0.2560   0.4695
     0.7093   0.7273   0.8667   0.9171   0.9287   1.0173   1.7211   2.0301
     2.1714   2.4408   4.9051   4.9385   5.1058   5.1253   5.4991   5.6425
     6.0611   6.1549

          k =-0.5000 0.0000 0.4985 ( 26104 PWs)   bands (ev):

  -100.8467-100.8091 -61.3879 -61.3167 -61.2567 -61.2190 -61.0924 -61.0917
    -4.9812  -4.9624  -3.8166  -3.7915  -3.4838  -3.4713  -3.4427  -3.4314
    -2.4688  -2.4566  -2.4356  -2.4218  -2.0720  -2.0342  -1.3955  -1.3434
    -1.1958  -1.0765  -0.9026  -0.7599  -0.6043  -0.5678  -0.4063  -0.3778
    -0.2617  -0.2402  -0.1569  -0.0825   0.0369   0.1119   0.2653   0.4653
     0.7563   0.7639   0.8744   0.9177   0.9310   1.0161   1.7234   1.9504
     2.1128   2.4749   5.4113   5.4403   5.5953   5.6142   5.8119   5.9239
     6.1926   6.2950

          k =-0.5000 0.0000-0.7477 ( 26120 PWs)   bands (ev):

  -100.8467-100.8091 -61.3879 -61.3167 -61.2567 -61.2190 -61.0924 -61.0917
    -4.4972  -4.4753  -4.4643  -4.4537  -3.0675  -3.0600  -3.0415  -3.0356
    -3.0108  -2.9973  -2.9502  -2.9471  -1.7988  -1.7205  -1.7076  -1.6073
    -1.2159  -1.0523  -0.9012  -0.6691  -0.4541  -0.4487  -0.3764  -0.3691
    -0.2571  -0.1672  -0.1170  -0.0288   0.0174   0.1881   0.2494   0.4298
     0.7775   0.7870   0.8771   0.9183   0.9330   1.0154   1.6882   1.8937
     2.1125   2.4896   6.1054   6.2166   6.2449   6.2738   6.3608   6.3736
     6.3840   6.4036

          k =-0.5000 0.0000-0.4985 ( 26104 PWs)   bands (ev):

  -100.8467-100.8091 -61.3879 -61.3167 -61.2567 -61.2190 -61.0924 -61.0917
    -4.9812  -4.9624  -3.8166  -3.7915  -3.4838  -3.4713  -3.4427  -3.4314
    -2.4688  -2.4566  -2.4356  -2.4218  -2.0720  -2.0342  -1.3955  -1.3434
    -1.1958  -1.0765  -0.9026  -0.7599  -0.6043  -0.5678  -0.4063  -0.3778
    -0.2617  -0.2402  -0.1569  -0.0825   0.0369   0.1119   0.2653   0.4653
     0.7563   0.7639   0.8744   0.9177   0.9310   1.0161   1.7234   1.9504
     2.1128   2.4749   5.4113   5.4403   5.5953   5.6142   5.8119   5.9239
     6.1926   6.2950

          k =-0.5000 0.0000-0.2492 ( 26090 PWs)   bands (ev):

  -100.8467-100.8091 -61.3879 -61.3167 -61.2567 -61.2190 -61.0924 -61.0917
    -5.2854  -5.2699  -3.7677  -3.7637  -3.7217  -3.7105  -2.9975  -2.9684
    -2.3356  -2.2679  -1.8715  -1.8518  -1.8293  -1.8130  -1.4373  -1.3563
    -1.2087  -1.1058  -1.0056  -0.9102  -0.7918  -0.7733  -0.5627  -0.4737
    -0.3818  -0.3052  -0.2249  -0.1875   0.0322   0.1317   0.2560   0.4695
     0.7093   0.7273   0.8667   0.9171   0.9287   1.0173   1.7211   2.0301
     2.1714   2.4408   4.9051   4.9385   5.1058   5.1253   5.4991   5.6425
     6.0611   6.1549

          k =-0.5000 0.2500 0.0000 ( 26098 PWs)   bands (ev):

  -100.8467-100.8091 -61.3879 -61.3167 -61.2567 -61.2190 -61.0924 -61.0917
    -5.2872  -5.2725  -4.5001  -4.4826  -3.0794  -3.0601  -2.3787  -2.3168
    -2.1089  -2.0912  -2.0099  -1.9950  -1.6880  -1.6712  -1.5498  -1.5429
    -1.4232  -1.4012  -1.1227  -1.0555  -0.9974  -0.9538  -0.7092  -0.4747
    -0.3015  -0.2826  -0.0977  -0.0669   0.0566   0.0964   0.1913   0.4310
     0.6846   0.7080   0.8596   0.9207   0.9318   1.0180   1.7229   2.0966
     2.2056   2.4066   4.6665   4.6884   5.2847   5.3131   5.4815   5.5163
     5.7300   5.8292

          k =-0.5000 0.2500 0.2492 ( 26112 PWs)   bands (ev):

  -100.8467-100.8091 -61.3879 -61.3167 -61.2567 -61.2190 -61.0924 -61.0917
    -5.1853  -5.1694  -4.4020  -4.3834  -3.0091  -2.9816  -2.9045  -2.8692
    -2.3306  -2.3217  -2.2337  -2.2102  -1.5382  -1.4814  -1.3961  -1.3490
    -1.2982  -1.2965  -1.0867  -1.0524  -0.8859  -0.8113  -0.6863  -0.4677
    -0.2784  -0.2256  -0.1846  -0.1458   0.0044   0.0962   0.2153   0.4636
     0.7074   0.7250   0.8638   0.9198   0.9333   1.0184   1.7621   2.0397
     2.1554   2.4135   4.8236   4.8823   5.4186   5.4615   5.5555   5.6526
     5.8404   5.9653

          k =-0.5000 0.2500 0.4985 ( 26120 PWs)   bands (ev):

  -100.8467-100.8091 -61.3879 -61.3167 -61.2567 -61.2190 -61.0924 -61.0917
    -4.8826  -4.8634  -4.1127  -4.0923  -3.7187  -3.6886  -3.0190  -2.9936
    -2.7256  -2.7071  -2.0585  -2.0267  -1.8482  -1.8055  -1.4486  -1.3225
    -1.2377  -1.1613  -1.0111  -0.9124  -0.7286  -0.6479  -0.5651  -0.4590
    -0.3140  -0.2620  -0.1025  -0.0881   0.0300   0.0985   0.2649   0.4872
     0.7512   0.7568   0.8724   0.9191   0.9385   1.0179   1.7288   1.9599
     2.1129   2.4681   5.3372   5.3571   5.8269   5.9151   6.0199   6.0747
     6.1448   6.2812

          k =-0.5000 0.2500-0.7477 ( 26148 PWs)   bands (ev):

  -100.8467-100.8091 -61.3879 -61.3167 -61.2567 -61.2190 -61.0924 -61.0917
    -4.4011  -4.3803  -4.3687  -4.3579  -3.6469  -3.6369  -3.6173  -3.6018
    -2.3693  -2.3313  -2.3016  -2.2858  -1.7556  -1.6931  -1.6764  -1.6045
    -1.2340  -1.0818  -0.9858  -0.8373  -0.7099  -0.6380  -0.5126  -0.4645
    -0.3588  -0.2797  -0.1269  -0.0653   0.1166   0.2544   0.3249   0.4473
     0.7638   0.7769   0.8765   0.9210   0.9421   1.0171   1.6632   1.9058
     2.1235   2.5351   6.0662   6.0987   6.2031   6.2497   6.3933   6.5254
     6.5437   6.5748

          k =-0.5000 0.2500-0.4985 ( 26120 PWs)   bands (ev):

  -100.8467-100.8091 -61.3879 -61.3167 -61.2567 -61.2190 -61.0924 -61.0917
    -4.8825  -4.8633  -4.1136  -4.0922  -3.7178  -3.6901  -3.0196  -2.9910
    -2.7317  -2.7025  -2.0629  -2.0307  -1.8352  -1.8082  -1.4036  -1.3421
    -1.2122  -1.1686  -1.0121  -0.9663  -0.7571  -0.6964  -0.5770  -0.4178
    -0.2725  -0.2225  -0.1159  -0.0878  -0.0037   0.1097   0.3400   0.4440
     0.7484   0.7566   0.8708   0.9237   0.9406   1.0169   1.6870   1.9591
     2.0915   2.5151   5.3103   5.3682   5.8485   5.9256   6.0112   6.0643
     6.1578   6.2917

          k =-0.5000 0.2500-0.2492 ( 26112 PWs)   bands (ev):

  -100.8467-100.8091 -61.3879 -61.3167 -61.2567 -61.2190 -61.0924 -61.0917
    -5.1852  -5.1694  -4.4021  -4.3837  -3.0030  -2.9908  -2.9038  -2.8674
    -2.3368  -2.3067  -2.2570  -2.1979  -1.5192  -1.4585  -1.4058  -1.3448
    -1.2974  -1.2851  -1.1273  -1.0229  -0.9235  -0.8765  -0.6669  -0.4437
    -0.2716  -0.2331  -0.1769  -0.1479   0.0174   0.1187   0.2415   0.4366
     0.7060   0.7245   0.8629   0.9227   0.9354   1.0172   1.7132   2.0488
     2.1551   2.4407   4.7985   4.8963   5.4365   5.4650   5.5528   5.6407
     5.8436   5.9952

          k =-0.5000-0.5000 0.0000 ( 26140 PWs)   bands (ev):

  -100.8467-100.8091 -61.3879 -61.3167 -61.2567 -61.2190 -61.0924 -61.0917
    -4.9988  -4.9792  -4.9768  -4.9657  -2.5160  -2.4826  -2.3751  -2.3584
    -1.9887  -1.9370  -1.8868  -1.8623  -1.8582  -1.8567  -1.7281  -1.7232
    -1.5678  -1.5302  -1.5248  -1.4668  -1.0491  -0.9777  -0.6928  -0.3733
    -0.1418  -0.0560  -0.0167   0.0588   0.0589   0.0820   0.2252   0.2820
     0.6728   0.7003   0.8487   0.9242   0.9385   1.0189   1.7442   2.0954
     2.2336   2.3976   4.7427   4.7868   4.8281   4.8868   5.6712   5.7057
     6.0233   6.0425

          k =-0.5000-0.5000 0.2492 ( 26096 PWs)   bands (ev):

  -100.8467-100.8091 -61.3879 -61.3167 -61.2567 -61.2190 -61.0924 -61.0917
    -4.8984  -4.8792  -4.8754  -4.8630  -2.6937  -2.6818  -2.6690  -2.6420
    -2.4066  -2.3696  -2.2841  -2.2740  -1.4958  -1.4892  -1.4560  -1.4514
    -1.3592  -1.3200  -1.2691  -1.2399  -1.0211  -0.9684  -0.6661  -0.3839
    -0.1318  -0.1200  -0.1040  -0.0927  -0.0160   0.0842   0.2530   0.3024
     0.7093   0.7181   0.8535   0.9239   0.9422   1.0190   1.7474   2.0639
     2.1236   2.4003   4.9521   5.0219   5.0796   5.1165   5.9848   6.0604
     6.2524   6.2858

          k =-0.5000-0.5000 0.4985 ( 26160 PWs)   bands (ev):

  -100.8467-100.8091 -61.3879 -61.3167 -61.2567 -61.2190 -61.0924 -61.0917
    -4.6003  -4.5827  -4.5753  -4.5585  -3.4614  -3.4494  -3.4314  -3.3990
    -2.1841  -2.1592  -2.0652  -2.0560  -1.4923  -1.4662  -1.4220  -1.3642
    -1.2774  -1.2629  -1.2404  -1.2269  -0.8624  -0.8391  -0.6666  -0.4842
    -0.4753  -0.4105  -0.1106   0.0499   0.1258   0.2516   0.3132   0.3341
     0.7441   0.7537   0.8626   0.9228   0.9487   1.0190   1.6904   1.9722
     2.0860   2.4997   5.4395   5.4967   5.5867   5.6203   6.5055   6.5356
     6.5515   6.6162

          k =-0.5000-0.5000-0.7477 ( 26176 PWs)   bands (ev):

  -100.8467-100.8091 -61.3879 -61.3167 -61.2567 -61.2190 -61.0924 -61.0917
    -4.1424  -4.1352  -4.1237  -4.1074  -4.0789  -4.0612  -4.0454  -4.0228
    -1.9420  -1.9137  -1.8042  -1.7957  -1.6944  -1.6656  -1.6627  -1.6329
    -1.2777  -1.2575  -0.9445  -0.9064  -0.8731  -0.8696  -0.8404  -0.8035
    -0.7011  -0.4174  -0.0647   0.1198   0.2717   0.3359   0.3591   0.3592
     0.7530   0.7690   0.8659   0.9222   0.9517   1.0189   1.6436   1.9207
     2.1319   2.5764   6.1072   6.1405   6.1632   6.1896   6.2608   6.3224
     6.3895   6.5150

          k =-0.5000-0.5000-0.4985 ( 26160 PWs)   bands (ev):

  -100.8467-100.8091 -61.3879 -61.3167 -61.2567 -61.2190 -61.0924 -61.0917
    -4.6003  -4.5827  -4.5753  -4.5585  -3.4614  -3.4494  -3.4314  -3.3990
    -2.1841  -2.1592  -2.0652  -2.0560  -1.4923  -1.4662  -1.4220  -1.3642
    -1.2774  -1.2629  -1.2404  -1.2269  -0.8624  -0.8391  -0.6666  -0.4842
    -0.4753  -0.4105  -0.1106   0.0499   0.1258   0.2516   0.3132   0.3341
     0.7441   0.7537   0.8626   0.9228   0.9487   1.0190   1.6904   1.9722
     2.0860   2.4997   5.4395   5.4967   5.5867   5.6203   6.5055   6.5356
     6.5515   6.6162

          k =-0.5000-0.5000-0.2492 ( 26096 PWs)   bands (ev):

  -100.8467-100.8091 -61.3879 -61.3167 -61.2567 -61.2190 -61.0924 -61.0917
    -4.8984  -4.8792  -4.8754  -4.8630  -2.6937  -2.6818  -2.6690  -2.6420
    -2.4066  -2.3696  -2.2841  -2.2740  -1.4958  -1.4892  -1.4560  -1.4514
    -1.3592  -1.3200  -1.2691  -1.2399  -1.0211  -0.9684  -0.6661  -0.3839
    -0.1318  -0.1200  -0.1040  -0.0927  -0.0160   0.0842   0.2530   0.3024
     0.7093   0.7181   0.8535   0.9239   0.9422   1.0190   1.7474   2.0639
     2.1236   2.4003   4.9521   5.0219   5.0796   5.1165   5.9848   6.0604
     6.2524   6.2857

          k =-0.5000-0.2500 0.0000 ( 26098 PWs)   bands (ev):

  -100.8467-100.8091 -61.3879 -61.3167 -61.2567 -61.2190 -61.0924 -61.0917
    -5.2872  -5.2725  -4.5001  -4.4826  -3.0794  -3.0601  -2.3787  -2.3168
    -2.1089  -2.0912  -2.0099  -1.9950  -1.6880  -1.6712  -1.5498  -1.5429
    -1.4232  -1.4012  -1.1227  -1.0555  -0.9974  -0.9538  -0.7092  -0.4747
    -0.3015  -0.2826  -0.0977  -0.0669   0.0566   0.0964   0.1913   0.4310
     0.6846   0.7080   0.8596   0.9207   0.9318   1.0180   1.7229   2.0966
     2.2056   2.4066   4.6665   4.6884   5.2847   5.3131   5.4815   5.5163
     5.7300   5.8292

          k =-0.5000-0.2500 0.2492 ( 26112 PWs)   bands (ev):

  -100.8467-100.8091 -61.3879 -61.3167 -61.2567 -61.2190 -61.0924 -61.0917
    -5.1852  -5.1694  -4.4021  -4.3837  -3.0030  -2.9908  -2.9038  -2.8674
    -2.3368  -2.3067  -2.2570  -2.1979  -1.5192  -1.4585  -1.4058  -1.3448
    -1.2974  -1.2851  -1.1273  -1.0229  -0.9235  -0.8765  -0.6669  -0.4437
    -0.2716  -0.2331  -0.1769  -0.1479   0.0174   0.1187   0.2415   0.4366
     0.7060   0.7245   0.8629   0.9227   0.9354   1.0172   1.7132   2.0488
     2.1551   2.4407   4.7985   4.8963   5.4365   5.4650   5.5528   5.6407
     5.8436   5.9952

          k =-0.5000-0.2500 0.4985 ( 26120 PWs)   bands (ev):

  -100.8467-100.8091 -61.3879 -61.3167 -61.2567 -61.2190 -61.0924 -61.0917
    -4.8825  -4.8633  -4.1136  -4.0922  -3.7178  -3.6901  -3.0196  -2.9910
    -2.7317  -2.7025  -2.0629  -2.0307  -1.8352  -1.8082  -1.4036  -1.3421
    -1.2122  -1.1686  -1.0121  -0.9663  -0.7571  -0.6964  -0.5770  -0.4178
    -0.2725  -0.2225  -0.1159  -0.0878  -0.0037   0.1097   0.3400   0.4440
     0.7484   0.7566   0.8708   0.9237   0.9406   1.0169   1.6870   1.9591
     2.0915   2.5151   5.3103   5.3682   5.8485   5.9256   6.0112   6.0643
     6.1578   6.2917

          k =-0.5000-0.2500-0.7477 ( 26148 PWs)   bands (ev):

  -100.8467-100.8091 -61.3879 -61.3167 -61.2567 -61.2190 -61.0924 -61.0917
    -4.4011  -4.3803  -4.3687  -4.3579  -3.6469  -3.6369  -3.6173  -3.6018
    -2.3693  -2.3313  -2.3016  -2.2858  -1.7556  -1.6931  -1.6764  -1.6045
    -1.2340  -1.0818  -0.9858  -0.8373  -0.7099  -0.6380  -0.5126  -0.4645
    -0.3588  -0.2797  -0.1269  -0.0653   0.1166   0.2544   0.3249   0.4473
     0.7638   0.7769   0.8765   0.9210   0.9421   1.0171   1.6632   1.9058
     2.1235   2.5351   6.0662   6.0987   6.2031   6.2497   6.3933   6.5254
     6.5437   6.5748

          k =-0.5000-0.2500-0.4985 ( 26120 PWs)   bands (ev):

  -100.8467-100.8091 -61.3879 -61.3167 -61.2567 -61.2190 -61.0924 -61.0917
    -4.8826  -4.8634  -4.1127  -4.0923  -3.7187  -3.6886  -3.0190  -2.9936
    -2.7256  -2.7071  -2.0585  -2.0267  -1.8482  -1.8055  -1.4486  -1.3225
    -1.2377  -1.1613  -1.0111  -0.9124  -0.7286  -0.6479  -0.5651  -0.4590
    -0.3140  -0.2620  -0.1025  -0.0881   0.0300   0.0985   0.2649   0.4872
     0.7512   0.7568   0.8724   0.9191   0.9385   1.0179   1.7288   1.9599
     2.1129   2.4681   5.3372   5.3571   5.8269   5.9151   6.0199   6.0747
     6.1448   6.2812

          k =-0.5000-0.2500-0.2492 ( 26112 PWs)   bands (ev):

  -100.8467-100.8091 -61.3879 -61.3167 -61.2567 -61.2190 -61.0924 -61.0917
    -5.1853  -5.1694  -4.4020  -4.3834  -3.0091  -2.9816  -2.9045  -2.8692
    -2.3306  -2.3217  -2.2337  -2.2102  -1.5382  -1.4814  -1.3961  -1.3490
    -1.2982  -1.2965  -1.0867  -1.0524  -0.8859  -0.8113  -0.6863  -0.4677
    -0.2784  -0.2256  -0.1846  -0.1458   0.0044   0.0962   0.2153   0.4636
     0.7074   0.7250   0.8638   0.9198   0.9333   1.0184   1.7621   2.0397
     2.1554   2.4135   4.8236   4.8823   5.4186   5.4615   5.5555   5.6526
     5.8404   5.9653

          k =-0.2500 0.0000 0.0000 ( 26112 PWs)   bands (ev):

  -100.8467-100.8091 -61.3879 -61.3167 -61.2567 -61.2190 -61.0924 -61.0917
    -5.6892  -4.8740  -4.0994  -4.0892  -3.4588  -3.4554  -3.3280  -2.3361
    -2.3204  -1.8365  -1.8204  -1.7001  -1.6826  -1.5719  -1.5679  -1.4373
    -1.3589  -1.3248  -1.1804  -1.1406  -0.7975  -0.7183  -0.5558  -0.3797
    -0.3511  -0.2720  -0.2503  -0.2091   0.0596   0.2296   0.2583   0.3485
     0.6980   0.7175   0.8699   0.9046   0.9186   1.0146   1.7391   2.0675
     2.1915   2.3600   4.5312   4.5507   5.2478   5.2640   5.4917   5.5327
     5.6622   5.7730

          k =-0.2500 0.0000 0.2492 ( 26094 PWs)   bands (ev):

  -100.8467-100.8091 -61.3879 -61.3167 -61.2567 -61.2190 -61.0924 -61.0917
    -5.5849  -4.7734  -4.0034  -3.9927  -3.3836  -3.3661  -3.2412  -3.2174
    -2.5735  -2.0083  -1.9949  -1.7512  -1.7067  -1.5807  -1.5676  -1.5236
    -1.4052  -1.3121  -1.0988  -0.9955  -0.7480  -0.6358  -0.5421  -0.3385
    -0.2440  -0.2124  -0.1594  -0.0457   0.0911   0.1595   0.2445   0.3711
     0.7171   0.7314   0.8756   0.9029   0.9165   1.0147   1.7722   2.0467
     2.1513   2.3871   4.7607   4.7795   5.4641   5.5325   5.6161   5.6787
     5.7450   5.8701

          k =-0.2500 0.0000 0.4985 ( 26099 PWs)   bands (ev):

  -100.8467-100.8091 -61.3879 -61.3167 -61.2567 -61.2190 -61.0924 -61.0917
    -5.2751  -4.4752  -4.0828  -3.7223  -3.7076  -3.3342  -3.0999  -3.0907
    -2.9736  -2.6506  -2.6438  -2.1582  -2.1474  -2.0180  -1.4912  -1.4586
    -1.1695  -1.1138  -0.9827  -0.8212  -0.6899  -0.5778  -0.4158  -0.2928
    -0.2207  -0.0285   0.0357   0.0608   0.1026   0.1663   0.2758   0.3985
     0.7510   0.7613   0.8844   0.9038   0.9187   1.0147   1.7327   1.9966
     2.1201   2.4630   5.4943   5.5407   5.7417   5.8301   5.8633   5.8847
     6.0456   6.3654

          k =-0.2500 0.0000-0.7477 ( 26088 PWs)   bands (ev):

  -100.8467-100.8091 -61.3879 -61.3167 -61.2567 -61.2190 -61.0924 -61.0917
    -4.7758  -4.7610  -4.0012  -3.9803  -3.2832  -3.2712  -3.2357  -3.2270
    -2.6942  -2.6899  -2.6539  -2.6470  -2.5515  -2.5213  -1.3811  -1.3288
    -1.1507  -1.0803  -0.9425  -0.8653  -0.6846  -0.6083  -0.4006  -0.2441
    -0.1021  -0.0170   0.1056   0.1327   0.1444   0.1840   0.3085   0.3789
     0.7656   0.7788   0.8867   0.9122   0.9231   1.0145   1.6912   1.9396
     2.1449   2.5023   5.7748   5.8941   6.3413   6.3622   6.3777   6.4544
     6.4831   6.5408

          k =-0.2500 0.0000-0.4985 ( 26099 PWs)   bands (ev):

  -100.8467-100.8091 -61.3879 -61.3167 -61.2567 -61.2190 -61.0924 -61.0917
    -5.2752  -4.4748  -4.0827  -3.7189  -3.7121  -3.3342  -3.0950  -3.0921
    -2.9764  -2.6583  -2.6413  -2.1584  -2.1383  -2.0152  -1.4805  -1.4369
    -1.2258  -1.1081  -1.0341  -0.8230  -0.6253  -0.5291  -0.4692  -0.3091
    -0.1760  -0.0241   0.0249   0.0812   0.1072   0.1629   0.2302   0.3982
     0.7487   0.7634   0.8830   0.9124   0.9252   1.0142   1.7332   1.9892
     2.1087   2.4729   5.4911   5.5367   5.7503   5.8261   5.8581   5.9085
     6.0572   6.3242

          k =-0.2500 0.0000-0.2492 ( 26094 PWs)   bands (ev):

  -100.8467-100.8091 -61.3879 -61.3167 -61.2567 -61.2190 -61.0924 -61.0917
    -5.5850  -4.7733  -4.0030  -3.9933  -3.3851  -3.3629  -3.2403  -3.2205
    -2.5749  -2.0053  -1.9938  -1.7565  -1.6809  -1.5897  -1.5628  -1.5239
    -1.4019  -1.3279  -1.1154  -1.0089  -0.7345  -0.6710  -0.4975  -0.3385
    -0.2404  -0.2062  -0.1582  -0.0489   0.0784   0.1531   0.2688   0.3668
     0.7177   0.7305   0.8738   0.9080   0.9224   1.0143   1.7469   2.0332
     2.1515   2.4077   4.7599   4.7755   5.4759   5.5337   5.6275   5.7015
     5.7467   5.8338

          k =-0.2500 0.2500 0.0000 ( 26078 PWs)   bands (ev):

  -100.8467-100.8091 -61.3879 -61.3167 -61.2567 -61.2190 -61.0924 -61.0917
    -5.5862  -4.7834  -4.7716  -4.0329  -3.2701  -3.2465  -3.0015  -2.2635
    -2.2446  -1.9152  -1.8761  -1.7849  -1.7198  -1.6671  -1.6173  -1.4552
    -1.3866  -1.1965  -1.1309  -1.0617  -1.0304  -0.7775  -0.6561  -0.4190
    -0.3766  -0.3076  -0.2423  -0.0994   0.0527   0.1940   0.2292   0.3916
     0.6904   0.7174   0.8846   0.9083   0.9210   1.0157   1.7642   2.0892
     2.1828   2.3685   4.3792   5.0688   5.1197   5.3263   5.4402   5.6358
     5.7207   5.7852

          k =-0.2500 0.2500 0.2492 ( 26113 PWs)   bands (ev):

  -100.8467-100.8091 -61.3879 -61.3167 -61.2567 -61.2190 -61.0924 -61.0917
    -5.4825  -4.6832  -4.6715  -3.9376  -3.1870  -3.1683  -3.1456  -2.9022
    -2.5068  -2.4943  -1.9831  -1.8421  -1.5839  -1.5403  -1.5076  -1.4235
    -1.3433  -1.1395  -1.1210  -1.0030  -0.9052  -0.7389  -0.5647  -0.4390
    -0.4000  -0.2929  -0.1012  -0.0284   0.0807   0.1639   0.1998   0.4084
     0.7070   0.7314   0.8859   0.9116   0.9235   1.0155   1.7742   2.0252
     2.1599   2.4021   4.6225   5.2039   5.3480   5.3644   5.6383   5.7108
     5.8423   5.9962

          k =-0.2500 0.2500 0.4985 ( 26127 PWs)   bands (ev):

  -100.8467-100.8091 -61.3879 -61.3167 -61.2567 -61.2190 -61.0924 -61.0917
    -5.1739  -4.3864  -4.3751  -3.9898  -3.6494  -3.2616  -3.2508  -2.9112
    -2.8914  -2.6544  -2.6045  -1.9963  -1.9523  -1.8059  -1.6405  -1.3495
    -1.1663  -1.1076  -0.9905  -0.7752  -0.7493  -0.6335  -0.5244  -0.3507
    -0.2756  -0.2026  -0.1501   0.0424   0.1505   0.1689   0.2736   0.4173
     0.7451   0.7631   0.8894   0.9211   0.9286   1.0149   1.7171   1.9551
     2.1170   2.4848   5.2650   5.6742   5.7923   5.8995   5.9707   6.0917
     6.2102   6.2813

          k =-0.2500 0.2500-0.7477 ( 26138 PWs)   bands (ev):

  -100.8467-100.8091 -61.3879 -61.3167 -61.2567 -61.2190 -61.0924 -61.0917
    -4.6775  -4.6620  -3.9390  -3.9224  -3.8748  -3.8535  -3.2014  -3.1967
    -2.5415  -2.5091  -2.4458  -2.4357  -2.3072  -2.2122  -1.4810  -1.2279
    -1.2005  -1.1437  -0.9428  -0.7809  -0.7593  -0.5310  -0.4259  -0.3737
    -0.3212  -0.1735  -0.1201   0.0871   0.1381   0.2837   0.3546   0.3830
     0.7559   0.7844   0.8919   0.9264   0.9318   1.0145   1.6644   1.8964
     2.1407   2.5328   5.9867   6.1405   6.2377   6.2707   6.3015   6.3571
     6.4236   6.5286

          k =-0.2500 0.2500-0.4985 ( 26127 PWs)   bands (ev):

  -100.8467-100.8091 -61.3879 -61.3167 -61.2567 -61.2190 -61.0924 -61.0917
    -5.1739  -4.3864  -4.3751  -3.9898  -3.6494  -3.2616  -3.2508  -2.9112
    -2.8914  -2.6544  -2.6045  -1.9963  -1.9523  -1.8059  -1.6405  -1.3495
    -1.1663  -1.1076  -0.9905  -0.7752  -0.7493  -0.6335  -0.5244  -0.3507
    -0.2756  -0.2026  -0.1501   0.0424   0.1505   0.1689   0.2736   0.4173
     0.7451   0.7631   0.8894   0.9211   0.9286   1.0149   1.7171   1.9551
     2.1170   2.4848   5.2650   5.6742   5.7923   5.8995   5.9707   6.0917
     6.2102   6.2813

          k =-0.2500 0.2500-0.2492 ( 26113 PWs)   bands (ev):

  -100.8467-100.8091 -61.3879 -61.3167 -61.2567 -61.2190 -61.0924 -61.0917
    -5.4825  -4.6832  -4.6715  -3.9376  -3.1870  -3.1683  -3.1456  -2.9022
    -2.5068  -2.4943  -1.9831  -1.8421  -1.5839  -1.5403  -1.5076  -1.4235
    -1.3433  -1.1395  -1.1210  -1.0030  -0.9052  -0.7389  -0.5647  -0.4390
    -0.4000  -0.2929  -0.1012  -0.0284   0.0807   0.1639   0.1998   0.4084
     0.7070   0.7314   0.8859   0.9116   0.9235   1.0155   1.7742   2.0252
     2.1599   2.4021   4.6225   5.2039   5.3480   5.3644   5.6383   5.7108
     5.8423   5.9962

          k =-0.2500-0.5000 0.0000 ( 26098 PWs)   bands (ev):

  -100.8467-100.8091 -61.3879 -61.3167 -61.2567 -61.2190 -61.0924 -61.0917
    -5.2872  -5.2725  -4.5001  -4.4826  -3.0794  -3.0601  -2.3787  -2.3168
    -2.1089  -2.0912  -2.0099  -1.9950  -1.6880  -1.6712  -1.5498  -1.5429
    -1.4232  -1.4012  -1.1227  -1.0555  -0.9974  -0.9538  -0.7092  -0.4747
    -0.3015  -0.2826  -0.0977  -0.0669   0.0566   0.0964   0.1913   0.4310
     0.6846   0.7080   0.8596   0.9207   0.9318   1.0180   1.7229   2.0966
     2.2056   2.4066   4.6665   4.6884   5.2847   5.3131   5.4815   5.5163
     5.7300   5.8292

          k =-0.2500-0.5000 0.2492 ( 26112 PWs)   bands (ev):

  -100.8467-100.8091 -61.3879 -61.3167 -61.2567 -61.2190 -61.0924 -61.0917
    -5.1852  -5.1694  -4.4021  -4.3837  -3.0030  -2.9908  -2.9038  -2.8674
    -2.3368  -2.3067  -2.2570  -2.1979  -1.5192  -1.4585  -1.4058  -1.3448
    -1.2974  -1.2851  -1.1273  -1.0229  -0.9235  -0.8765  -0.6669  -0.4437
    -0.2716  -0.2331  -0.1769  -0.1479   0.0174   0.1187   0.2415   0.4366
     0.7060   0.7245   0.8629   0.9227   0.9354   1.0172   1.7132   2.0488
     2.1551   2.4407   4.7985   4.8963   5.4365   5.4650   5.5528   5.6407
     5.8436   5.9952

          k =-0.2500-0.5000 0.4985 ( 26120 PWs)   bands (ev):

  -100.8467-100.8091 -61.3879 -61.3167 -61.2567 -61.2190 -61.0924 -61.0917
    -4.8825  -4.8633  -4.1136  -4.0922  -3.7178  -3.6901  -3.0196  -2.9910
    -2.7317  -2.7025  -2.0629  -2.0307  -1.8352  -1.8082  -1.4036  -1.3421
[...]
    -0.9408  -0.8578  -0.8156  -0.7210  -0.5303  -0.3598  -0.1520  -0.0174
     0.0871   0.2481   0.3703   0.4758   0.5506   0.6431   0.7667   1.0298
     1.2716   1.4050   1.4909   1.5344   1.5814   1.6945   2.9805   3.5115
     3.7377   4.1516   5.4256   6.0861   6.1414   6.1738   6.4263   6.7624
     6.8470   6.8852

          k =-0.2592-0.5185 0.0025 ( 26098 PWs)   bands (ev):

  -100.1804-100.0312 -60.6832 -60.6472 -60.5247 -60.4288 -60.3926 -60.3329
    -5.3714  -5.0306  -4.4247  -4.1587  -2.9390  -2.6329  -2.1388  -2.0202
    -1.8187  -1.7619  -1.6070  -1.5784  -1.3929  -1.2683  -1.1678  -1.1225
    -1.0527  -0.9779  -0.9057  -0.8464  -0.6474  -0.5433  -0.3789  -0.1057
     0.1935   0.2500   0.4078   0.4436   0.5539   0.6254   0.6857   1.0391
     1.2379   1.3621   1.4985   1.5068   1.5895   1.6999   2.9265   3.6276
     3.7830   4.1190   5.5152   5.5507   6.0923   6.1920   6.2891   6.3573
     6.6334   6.7020

          k =-0.2600-0.5193 0.2594 ( 26112 PWs)   bands (ev):

  -100.1804-100.0312 -60.6832 -60.6472 -60.5247 -60.4288 -60.3926 -60.3329
    -5.2632  -4.9210  -4.3281  -4.0642  -2.9854  -2.6160  -2.5449  -2.5012
    -2.0304  -1.9867  -1.8068  -1.7588  -1.2473  -1.1920  -1.0976  -1.0217
    -0.9203  -0.8517  -0.7990  -0.7578  -0.5416  -0.4878  -0.3178  -0.0774
     0.1917   0.2452   0.3345   0.4395   0.5138   0.6356   0.7656   1.0422
     1.2654   1.3765   1.5083   1.5111   1.5929   1.6983   2.8973   3.5616
     3.7348   4.2097   5.6392   5.6915   6.1953   6.4169   6.4451   6.5889
     6.7478   6.8482

          k =-0.2608-0.5201 0.5163 ( 26120 PWs)   bands (ev):

  -100.1804-100.0312 -60.6832 -60.6472 -60.5247 -60.4288 -60.3926 -60.3329
    -4.9518  -4.6019  -4.0436  -3.8290  -3.5830  -3.3473  -2.8245  -2.5915
    -2.3806  -2.2390  -1.8443  -1.5909  -1.4487  -1.3812  -1.1451  -1.0145
    -0.9320  -0.8436  -0.7034  -0.6345  -0.4443  -0.2931  -0.1812  -0.0034
     0.1439   0.2337   0.3805   0.4657   0.5530   0.7255   0.8262   1.0399
     1.3220   1.4082   1.5168   1.5273   1.5938   1.6973   2.8506   3.4498
     3.6837   4.3492   6.0593   6.1502   6.6807   6.8648   6.9583   7.0362
     7.1303   7.1719

          k =-0.2567-0.5160-0.7683 ( 26148 PWs)   bands (ev):

  -100.1804-100.0312 -60.6832 -60.6472 -60.5247 -60.4288 -60.3926 -60.3329
    -4.5899  -4.2868  -4.0771  -4.0254  -3.5727  -3.3979  -3.2678  -3.1833
    -2.1631  -1.9973  -1.8587  -1.7772  -1.4666  -1.3061  -1.2247  -1.1886
    -0.9801  -0.8845  -0.7788  -0.4558  -0.3652  -0.2581  -0.1278  -0.0750
     0.1146   0.1987   0.4013   0.4578   0.6282   0.7734   0.9342   1.0242
     1.3494   1.4330   1.5176   1.5375   1.5913   1.6982   2.8285   3.3810
     3.7458   4.3662   6.6092   6.9508   7.0284   7.1247   7.3324   7.4751
     7.5074   7.5291

          k =-0.2575-0.5168-0.5114 ( 26120 PWs)   bands (ev):

  -100.1804-100.0312 -60.6832 -60.6472 -60.5247 -60.4288 -60.3926 -60.3329
    -4.9559  -4.6120  -4.0622  -3.7395  -3.5500  -3.3630  -2.9414  -2.6142
    -2.4092  -2.2480  -1.7222  -1.5702  -1.4908  -1.3553  -1.2030  -1.0167
    -0.9593  -0.7743  -0.6486  -0.6221  -0.4428  -0.2897  -0.1566  -0.0242
     0.0962   0.2074   0.3898   0.4824   0.5157   0.6819   0.8092   1.0811
     1.3270   1.4352   1.5088   1.5277   1.5852   1.6996   2.8992   3.4367
     3.7003   4.2632   6.0936   6.2038   6.6583   6.8364   6.9005   7.0091
     7.1068   7.1211

          k =-0.2584-0.5177-0.2545 ( 26112 PWs)   bands (ev):

  -100.1804-100.0312 -60.6832 -60.6472 -60.5247 -60.4288 -60.3926 -60.3329
    -5.2659  -4.9253  -4.3210  -4.0489  -2.9218  -2.7621  -2.5172  -2.4827
    -2.1154  -1.8864  -1.8521  -1.7136  -1.3314  -1.2124  -1.0707  -0.9802
    -0.9367  -0.8532  -0.7826  -0.6919  -0.5307  -0.4347  -0.3017  -0.1146
     0.1586   0.2650   0.3290   0.4334   0.4671   0.6103   0.7660   1.0633
     1.2694   1.3941   1.4989   1.5130   1.5856   1.7002   2.9584   3.5218
     3.7229   4.1638   5.6456   5.7219   6.1611   6.3957   6.4610   6.5744
     6.7664   6.8137

          k =-0.2592-0.2592 0.0016 ( 26078 PWs)   bands (ev):

  -100.1804-100.0312 -60.6832 -60.6472 -60.5247 -60.4288 -60.3926 -60.3329
    -5.5648  -4.6917  -4.5520  -3.7964  -3.1341  -2.8915  -2.5886  -2.0911
    -1.9110  -1.6078  -1.4551  -1.4207  -1.3515  -1.3401  -1.2388  -1.0881
    -0.9660  -0.9319  -0.9230  -0.7124  -0.5756  -0.4638  -0.3233  -0.0780
     0.1155   0.2632   0.2683   0.3508   0.6804   0.7212   0.8661   0.8852
     1.2483   1.3682   1.4900   1.5017   1.5871   1.6942   2.8991   3.5886
     3.7881   4.0955   5.2118   5.7351   6.0272   6.3640   6.3764   6.4098
     6.6272   6.6864

          k =-0.2600-0.2600 0.2586 ( 26113 PWs)   bands (ev):

  -100.1804-100.0312 -60.6832 -60.6472 -60.5247 -60.4288 -60.3926 -60.3329
    -5.4532  -4.5906  -4.4493  -3.7230  -3.1363  -2.8175  -2.7929  -2.4958
    -2.1674  -2.1319  -1.6025  -1.4838  -1.3152  -1.1799  -1.1123  -1.0955
    -0.9633  -0.9337  -0.8469  -0.6374  -0.5143  -0.3878  -0.2852  -0.0431
     0.1776   0.2002   0.3456   0.3845   0.6982   0.7449   0.8924   0.9113
     1.2767   1.3831   1.5009   1.5072   1.5834   1.6930   2.8992   3.6254
     3.6880   4.1735   5.4040   6.1145   6.1287   6.2435   6.4438   6.7209
     6.7948   6.8959

          k =-0.2608-0.2608 0.5155 ( 26127 PWs)   bands (ev):

  -100.1804-100.0312 -60.6832 -60.6472 -60.5247 -60.4288 -60.3926 -60.3329
    -5.1321  -4.2919  -4.1401  -3.8965  -3.3808  -3.0419  -2.9517  -2.5899
    -2.5054  -2.2388  -2.1819  -1.6776  -1.5785  -1.3886  -1.3114  -1.0915
    -0.9480  -0.9006  -0.6792  -0.3770  -0.3639  -0.2054  -0.1376  -0.0883
     0.1560   0.2877   0.4677   0.5099   0.6634   0.7784   0.9562   0.9588
     1.3166   1.4425   1.5084   1.5137   1.5764   1.6937   2.8640   3.5293
     3.6806   4.3218   6.0125   6.5040   6.6449   6.8367   6.9007   7.0414
     7.0830   7.1787

          k =-0.2568-0.2568-0.7691 ( 26138 PWs)   bands (ev):

  -100.1804-100.0312 -60.6832 -60.6472 -60.5247 -60.4288 -60.3926 -60.3329
    -4.7344  -4.4644  -3.8953  -3.6566  -3.6021  -3.5624  -3.0097  -2.8001
    -2.3008  -2.1204  -2.0753  -2.0563  -1.8903  -1.6650  -1.1780  -1.1001
    -0.9300  -0.9010  -0.6021  -0.4727  -0.3472  -0.1576  -0.0427   0.0162
     0.2445   0.3201   0.3924   0.5698   0.5922   0.8646   0.9520   1.0023
     1.3380   1.4773   1.5043   1.5267   1.5743   1.6959   2.8584   3.4588
     3.7479   4.3349   6.6917   7.0421   7.0621   7.1586   7.1891   7.2870
     7.3161   7.4795

          k =-0.2576-0.2576-0.5122 ( 26127 PWs)   bands (ev):

  -100.1804-100.0312 -60.6832 -60.6472 -60.5247 -60.4288 -60.3926 -60.3329
    -5.1416  -4.3206  -4.1304  -3.7653  -3.3959  -3.0981  -2.9674  -2.7007
    -2.5284  -2.2360  -2.1626  -1.6259  -1.5887  -1.3507  -1.2357  -1.1081
    -0.9667  -0.9012  -0.7107  -0.4666  -0.3297  -0.1475  -0.0719  -0.0037
     0.2217   0.2402   0.4285   0.4598   0.6131   0.7194   0.9535   0.9636
     1.3270   1.4631   1.4926   1.5169   1.5818   1.6968   2.9236   3.5097
     3.6733   4.2491   6.1029   6.4620   6.6428   6.8390   6.8477   7.0448
     7.1040   7.1568

          k =-0.2584-0.2584-0.2553 ( 26113 PWs)   bands (ev):

  -100.1804-100.0312 -60.6832 -60.6472 -60.5247 -60.4288 -60.3926 -60.3329
    -5.4589  -4.5882  -4.4443  -3.6888  -3.0801  -2.9265  -2.8041  -2.4785
    -2.1809  -2.1477  -1.6209  -1.5188  -1.3651  -1.1908  -1.0781  -1.0312
    -0.9577  -0.8800  -0.8734  -0.6632  -0.4746  -0.3541  -0.1989  -0.0026
     0.1534   0.2056   0.3274   0.3411   0.6529   0.7086   0.8874   0.9175
     1.2842   1.4073   1.4862   1.5046   1.5868   1.6958   2.9303   3.5726
     3.6635   4.1645   5.4840   6.0891   6.0897   6.2345   6.3835   6.7332
     6.7541   6.9101

     the Fermi energy is     3.6347 ev

!    total energy              =   -1195.39356039 Ry
     estimated scf accuracy    <          2.4E-13 Ry
     smearing contrib. (-TS)   =      -0.00102830 Ry
     internal energy E=F+TS    =   -1195.39253210 Ry

     The total energy is F=E-TS. E is the sum of the following terms:
     one-electron contribution =    -892.83169365 Ry
     hartree contribution      =     472.15318818 Ry
     xc contribution           =    -117.36761264 Ry
     ewald contribution        =    -218.78517727 Ry
     DFT-D3 Dispersion         =      -0.47702475 Ry
     one-center paw contrib.   =    -438.08421197 Ry

     convergence has been achieved in   4 iterations

     Forces acting on atoms (cartesian axes, Ry/au):

     atom    1 type  1   force =     0.00073862    0.00073861    0.00062354
     atom    2 type  2   force =     0.00001246    0.00001246    0.00031261
     atom    3 type  3   force =    -0.00034642   -0.00034642    0.00047651
     atom    4 type  3   force =     0.00061054    0.00061054   -0.00127043
     atom    5 type  3   force =    -0.00014998    0.00028099    0.00018858
     atom    6 type  3   force =     0.00028099   -0.00014998    0.00018858
     atom    7 type  2   force =     0.00026137    0.00026137    0.00049790
     atom    8 type  2   force =    -0.00030650   -0.00030650    0.00030890
     atom    9 type  3   force =    -0.00013484   -0.00013484    0.00008133
     atom   10 type  3   force =    -0.00032155   -0.00032155    0.00000614
     atom   11 type  3   force =    -0.00032939    0.00026933   -0.00044537
     atom   12 type  3   force =     0.00026933   -0.00032939   -0.00044537
     atom   13 type  2   force =    -0.00031946    0.00004445   -0.00024347
     atom   14 type  2   force =     0.00032007   -0.00038315    0.00011794
     atom   15 type  3   force =    -0.00021562   -0.00062569    0.00006016
     atom   16 type  3   force =     0.00043717   -0.00000833    0.00026494
     atom   17 type  3   force =    -0.00051891   -0.00043528   -0.00014342
     atom   18 type  3   force =    -0.00062915    0.00036683   -0.00045269
     atom   19 type  2   force =    -0.00078931    0.00065545    0.00021807
     atom   20 type  2   force =     0.00026444   -0.00012879   -0.00006328
     atom   21 type  3   force =     0.00008525   -0.00071193   -0.00013492
     atom   22 type  3   force =    -0.00017249    0.00060955   -0.00020099
     atom   23 type  3   force =    -0.00013102    0.00022934    0.00011067
     atom   24 type  3   force =    -0.00062651    0.00042625    0.00057761
     atom   25 type  2   force =     0.00004445   -0.00031946   -0.00024348
     atom   26 type  2   force =    -0.00038315    0.00032007    0.00011794
     atom   27 type  3   force =    -0.00062569   -0.00021562    0.00006016
     atom   28 type  3   force =    -0.00000833    0.00043717    0.00026494
     atom   29 type  3   force =     0.00036683   -0.00062915   -0.00045269
     atom   30 type  3   force =    -0.00043528   -0.00051891   -0.00014342
     atom   31 type  2   force =     0.00065546   -0.00078931    0.00021807
     atom   32 type  2   force =    -0.00012879    0.00026444   -0.00006328
     atom   33 type  3   force =    -0.00071193    0.00008525   -0.00013492
     atom   34 type  3   force =     0.00060955   -0.00017249   -0.00020099
     atom   35 type  3   force =     0.00042625   -0.00062651    0.00057760
     atom   36 type  3   force =     0.00022934   -0.00013102    0.00011067
     atom   37 type  2   force =    -0.00019873   -0.00019873    0.00013996
     atom   38 type  2   force =     0.00069972    0.00069972   -0.00018661
     atom   39 type  3   force =     0.00039822    0.00039822   -0.00103011
     atom   40 type  3   force =     0.00019114    0.00019114   -0.00009416
     atom   41 type  3   force =    -0.00039647    0.00042225   -0.00023028
     atom   42 type  3   force =     0.00042225   -0.00039647   -0.00023028
     atom   43 type  2   force =     0.00011359    0.00011358   -0.00000706
     atom   44 type  1   force =     0.00034949    0.00034949    0.00040648
     atom   45 type  3   force =     0.00052488    0.00052488   -0.00026141
     atom   46 type  3   force =     0.00010850    0.00010850    0.00046930
     atom   47 type  3   force =    -0.00129247    0.00075213    0.00014001
     atom   48 type  3   force =     0.00075212   -0.00129247    0.00014001

     Total force =     0.005149     Total SCF correction =     0.000003


     Computing stress (Cartesian axis) and pressure

          total   stress  (Ry/bohr**3)                   (kbar)     P=        0.06
  -0.00000183   0.00000069  -0.00000027           -0.27        0.10       -0.04
   0.00000069  -0.00000183  -0.00000027            0.10       -0.27       -0.04
  -0.00000027  -0.00000027   0.00000478           -0.04       -0.04        0.70

     Message from routine bfgs:
     history already reset at previous step: exiting
     Energy error            =      7.8E-04 Ry
     Gradient error          =      1.3E-03 Ry/Bohr
     Cell gradient error     =      7.0E-01 kbar

     bfgs failed after  54 scf cycles and  43 bfgs steps, convergence not achieved
     (criteria: energy <  1.0E-05 Ry, force <  1.0E-04 Ry/Bohr, cell <  5.0E-01 kbar)

     End of BFGS Geometry Optimization

     Final enthalpy           =   -1195.3935603939 Ry

     File ./outdir/mgh2ni.bfgs deleted, as requested
Begin final coordinates
     new unit-cell volume =   3000.88425 a.u.^3 (   444.68517 Ang^3 )
     density =      1.82942 g/cm^3

CELL_PARAMETERS (angstrom)
   8.711131798   0.001451239   0.027674119
   0.001451239   8.711131784   0.027674121
   0.018589027   0.018589028   5.860197295

ATOMIC_POSITIONS (angstrom)
Ni              -0.0119420350       -0.0119420276        0.0030702269
Mg               2.1321830179        2.1321830167        1.5017431937
H                1.1742279782        1.1742279835        0.0805761060
H               -1.1788508116       -1.1788508106       -0.4362280407
H                3.4947721719        0.7956855734        1.5038891518
H                0.7956855696        3.4947721690        1.5038891525
Mg              -0.0377711587       -0.0377711566        3.0086051161
Mg               2.1157324435        2.1157324390        4.4274002300
H                1.2698928565        1.2698928547        2.9474594786
H               -1.3644775097       -1.3644775197        3.1046839253
H                3.5172454046        0.7695737314        4.4071956147
H                0.7695737335        3.5172453923        4.4071956139
Mg              -0.0303896035        4.3927767906        0.0275972690
Mg               2.1464854552        6.5713597776        1.4774443270
H                1.3605680289        5.6284680222        0.0311304161
H               -1.4130071181        3.1402495699        0.0025353436
H                3.5425681037        5.2621569473        1.4921315622
H                0.6375508850        7.8185150275        1.2850781270
Mg              -0.0676392194        4.4324372593        2.9491520016
Mg               2.1704922192        6.5701817077        4.4484337361
H                1.2404026211        5.7844069030        2.9752735816
H               -1.3257011140        3.0418904954        2.9343472590
H                3.4393591193        5.1743785239        4.4159597029
H                0.8772950659        8.0018260877        4.6681967412
Mg               4.3927768019       -0.0303896123        0.0275972720
Mg               6.5713597855        2.1464854510        1.4774443238
H                5.6284680323        1.3605680288        0.0311304154
H                3.1402495648       -1.4130071104        0.0025353378
H                7.8185150458        0.6375508786        1.2850781172
H                5.2621569538        3.5425681056        1.4921315609
Mg               4.4324372643       -0.0676392233        2.9491519956
Mg               6.5701817183        2.1704922191        4.4484337365
H                5.7844069078        1.2404026219        2.9752735810
H                3.0418904897       -1.3257011042        2.9343472607
H                8.0018261020        0.8772950628        4.6681967505
H                5.1743785268        3.4393591181        4.4159597020
Mg               4.3717075234        4.3717075208        0.0052754843
Mg               6.6906355142        6.6906354762        1.4215095261
H                5.8239752586        5.8239752463       -0.1941789990
H                2.9864384579        2.9864384576        0.0227681883
H                7.8862369817        5.3031562135        1.4918572810
H                5.3031561832        7.8862369346        1.4918572818
Mg               4.4056681636        4.4056681630        2.9710514335
Ni               6.5815600128        6.5815600005        4.4087596692
H                5.7827588377        5.7827588231        3.1045159285
H                3.0158949850        3.0158949848        2.9603952769
H                7.7632868870        5.4768750294        4.4609843368
H                5.4768750425        7.7632868718        4.4609843357
End final coordinates



     Writing config-only to output data dir ./outdir/mgh2ni.save/ :
     XML data file

     Writing all to output data dir ./outdir/mgh2ni.save/ :
     XML data file, charge density, pseudopotentials, collected wavefunctions
 
     init_run     :      6.19s CPU      7.10s WALL (       1 calls)
     electrons    :   5819.84s CPU   5833.23s WALL (      54 calls)
     update_pot   :      8.07s CPU      8.08s WALL (      53 calls)
     forces       :    156.88s CPU    156.95s WALL (      54 calls)
     force_dftd3  :     38.89s CPU     38.89s WALL (      54 calls)
     stress       :    231.84s CPU    232.11s WALL (      54 calls)
     stres_dftd3  :     38.87s CPU     38.87s WALL (      54 calls)

     Called by init_run:
     wfcinit      :      4.52s CPU      5.23s WALL (       1 calls)
     potinit      :      0.66s CPU      0.69s WALL (       1 calls)
     hinit0       :      0.48s CPU      0.51s WALL (       1 calls)

     Called by electrons:
     c_bands      :   5044.28s CPU   5055.21s WALL (     566 calls)
     sum_band     :    556.75s CPU    557.54s WALL (     566 calls)
     v_of_rho     :      3.41s CPU      3.53s WALL (     590 calls)
     newd         :    156.84s CPU    156.97s WALL (     590 calls)
     PAW_pot      :     35.25s CPU     35.27s WALL (     643 calls)
     mix_rho      :      5.87s CPU      6.27s WALL (     566 calls)
     energy_dftd3 :     29.44s CPU     29.45s WALL (      54 calls)

     Called by c_bands:
     init_us_2    :    111.95s CPU    112.07s WALL (  124224 calls)
     cegterg      :   4711.68s CPU   4721.27s WALL (   54336 calls)

     Called by *egterg:
     cdiaghg      :   1056.70s CPU   1115.54s WALL (  206712 calls)
                                     1115.01s GPU  (  206712 calls)
     h_psi        :   1595.00s CPU   1602.65s WALL (  214776 calls)
     s_psi        :    553.98s CPU    554.65s WALL (  214776 calls)
     g_psi        :      7.23s CPU      7.24s WALL (  160344 calls)

     Called by h_psi:
     h_psi:calbec :      3.32s CPU      3.46s WALL (  214776 calls)
     vloc_psi     :   1022.82s CPU   1029.55s WALL (  214776 calls)
                                     1029.02s GPU  (  214776 calls)
     add_vuspsi   :    562.33s CPU    564.01s WALL (  214776 calls)

     General routines
     calbec       :      4.41s CPU      4.58s WALL (  362328 calls)
     fft          :      3.21s CPU      4.51s WALL (    8995 calls)
                                        1.35s GPU  (    8405 calls)
     ffts         :      1.42s CPU      1.46s WALL (    1156 calls)
                                        0.05s GPU  (     566 calls)
     fftw         :      8.56s CPU   1057.49s WALL ( 1388478 calls)
                                     1053.67s GPU  ( 1388478 calls)
     interpolate  :      5.42s CPU      5.55s WALL (     590 calls)
     davcio       :      0.01s CPU      0.35s WALL (      96 calls)
 
 
     PWSCF        :      1h44m CPU      1h44m WALL

 
   This run was terminated on:  15:20:23  28May2026            

=------------------------------------------------------------------------------=
   JOB DONE.
=------------------------------------------------------------------------------=
