
     Program PWSCF v.7.5 starts on 28May2026 at  7:21:51 

     This program is part of the open-source Quantum ESPRESSO suite
     for quantum simulation of materials; please cite
         "P. Giannozzi et al., J. Phys.:Condens. Matter 21 395502 (2009);
         "P. Giannozzi et al., J. Phys.:Condens. Matter 29 465901 (2017);
         "P. Giannozzi et al., J. Chem. Phys. 152 154105 (2020);
          URL http://www.quantum-espresso.org", 
     in publications or presentations arising from this work. More details at
     http://www.quantum-espresso.org/quote

     Serial multi-threaded version, running on    1 processor cores
     14011 MiB available memory on the printing compute node when the environment starts
 
     Reading input from inputs/mgni.in

     Current dimensions of program PWSCF are:
     Max number of different atomic species (ntypx) = 10
     Max number of k-points (npk) =  40000
     Max angular momentum in pseudopotentials (lmaxx) =  4
     file Mg.pbe-n-kjpaw_psl.0.3.0.UPF: wavefunction(s)  3S renormalized
 
 
     G-vector sticks info
     --------------------
     sticks:   dense  smooth     PW     G-vecs:    dense   smooth      PW
     Sum        4855    2407    685               442799   156511   23931
 
     Using Slab Decomposition
 


     bravais-lattice index     =            0
     lattice parameter (alat)  =      12.0942  a.u.
     unit-cell volume          =    2494.3357 (a.u.)^3
     number of atoms/cell      =           16
     number of atomic types    =            2
     number of electrons       =        64.00
     number of Kohn-Sham states=           38
     kinetic-energy cutoff     =      60.0000  Ry
     charge density cutoff     =     480.0000  Ry
     scf convergence threshold =      1.0E-09
     mixing beta               =       0.3000
     number of iterations used =           12  plain     mixing
     energy convergence thresh.=      1.0E-05
     force convergence thresh. =      1.0E-04
     press convergence thresh. =      5.0E-01
     Exchange-correlation= SLA  PW   PBX  PBC
                           (   1   4   3   4   0   0   0)
     nstep                     =          200


     GPU acceleration is ACTIVE.  1 visible GPUs per MPI rank


     celldm(1)=  12.094247  celldm(2)=   0.000000  celldm(3)=   0.000000
     celldm(4)=   0.000000  celldm(5)=   0.000000  celldm(6)=   0.000000

     crystal axes: (cart. coord. in units of alat)
               a(1) = (   1.000000   0.000000   0.000000 )  
               a(2) = (  -0.500000   0.866025   0.000000 )  
               a(3) = (   0.000000   0.000000   1.628125 )  

     reciprocal axes: (cart. coord. in units 2 pi/alat)
               b(1) = (  1.000000  0.577350 -0.000000 )  
               b(2) = (  0.000000  1.154701  0.000000 )  
               b(3) = (  0.000000 -0.000000  0.614203 )  


     PseudoPot. # 1 for Ni read from file:
     /home/x/Workspace/espresso/pseudo/ni_pbe_v1.4.uspp.F.UPF
     MD5 check sum: 1ee80287db30b12d2bc1f57a5b5d6409
     Pseudo is Ultrasoft + core correction, Zval = 18.0
     Generated by new atomic code, or converted to UPF format
     Using radial grid of  865 points,  6 beta functions with: 
                l(1) =   0
                l(2) =   0
                l(3) =   1
                l(4) =   1
                l(5) =   2
                l(6) =   2
     Q(r) pseudized with 10 coefficients,  rinner =    0.980   0.980   0.980
                                                       0.980   0.980

     PseudoPot. # 2 for Mg read from file:
     /home/x/Workspace/espresso/pseudo/Mg.pbe-n-kjpaw_psl.0.3.0.UPF
     MD5 check sum: 24ecedc7f3e3cbe212e682f4413594e4
     Pseudo is Projector augmented-wave + core cor, Zval =  2.0
     Generated using "atomic" code by A. Dal Corso  v.5.0.99 svn rev. 10869
     Shape of augmentation charge: PSQ
     Using radial grid of 1129 points,  4 beta functions with: 
                l(1) =   0
                l(2) =   0
                l(3) =   1
                l(4) =   1
     Q(r) pseudized with 0 coefficients 


     atomic species   valence    mass     pseudopotential
     Ni               18.00    58.69340     Ni( 1.00)
     Mg                2.00    24.30500     Mg( 1.00)

     No symmetry found



   Cartesian axes

     site n.     atom                  positions (alat units)
         1        Ni     tau(   1) = (   0.0000000   0.2886751   0.2035156  )
         2        Mg     tau(   2) = (   0.2500000   0.1443376   0.6105469  )
         3        Mg     tau(   3) = (   0.0000000   0.2886751   1.0175781  )
         4        Mg     tau(   4) = (   0.2500000   0.1443376   1.4246094  )
         5        Mg     tau(   5) = (  -0.2500000   0.7216878   0.2035156  )
         6        Mg     tau(   6) = (   0.0000000   0.5773503   0.6105469  )
         7        Mg     tau(   7) = (  -0.2500000   0.7216878   1.0175781  )
         8        Mg     tau(   8) = (   0.0000000   0.5773503   1.4246094  )
         9        Mg     tau(   9) = (   0.5000000   0.2886751   0.2035156  )
        10        Mg     tau(  10) = (   0.7500000   0.1443376   0.6105469  )
        11        Mg     tau(  11) = (   0.5000000   0.2886751   1.0175781  )
        12        Ni     tau(  12) = (   0.7500000   0.1443376   1.4246094  )
        13        Mg     tau(  13) = (   0.2500000   0.7216878   0.2035156  )
        14        Mg     tau(  14) = (   0.5000000   0.5773503   0.6105469  )
        15        Mg     tau(  15) = (   0.2500000   0.7216878   1.0175781  )
        16        Mg     tau(  16) = (   0.5000000   0.5773503   1.4246094  )

     --------------------------------------------
     DFT-D3 Dispersion Correction (3-body terms):
     --------------------------------------------
       Reference C6 values for interpolation: 

         atom   Coordination number   C6
         Mg         0.000          1366.75
         Mg         0.963           902.54
         Mg         1.950           351.12
         Ni         0.000          1149.49
         Ni         1.794           356.66
         Ni         6.546           257.56
         Ni         6.292           283.75

       Values used:

         atom   Coordination number  R0_AB[au]  C6      C8
         Ni         2.955            3.162    356.66  29885.72
         Mg         7.714            3.292    351.12  31436.69
         Mg         7.711            3.292    351.12  31436.69
         Mg         6.904            3.292    351.12  31436.69
         Mg         7.282            3.292    351.12  31436.69
         Mg         7.714            3.292    351.12  31436.69
         Mg         8.091            3.292    351.12  31436.69
         Mg         6.904            3.292    351.12  31436.69
         Mg         6.904            3.292    351.12  31436.69
         Mg         7.711            3.292    351.12  31436.69
         Mg         7.714            3.292    351.12  31436.69
         Ni         2.955            3.162    356.66  29885.72
         Mg         6.904            3.292    351.12  31436.69
         Mg         8.091            3.292    351.12  31436.69
         Mg         7.714            3.292    351.12  31436.69
         Mg         7.282            3.292    351.12  31436.69

         Molecular C6 ( Ry / a.u.^6 ) =     89906.64


     number of k points=   144  Marzari-Vanderbilt smearing, width (Ry)=  0.0100

     Number of k-points >= 100: set verbosity='high' to print them.

     Dense  grid:   442799 G-vectors     FFT dimensions: (  90,  90, 144)

     Smooth grid:   156511 G-vectors     FFT dimensions: (  60,  60, 100)

     Estimated max dynamical RAM per process >       3.47 GB

     Initial potential from superposition of free atoms

     starting charge      59.9871, renormalised to      64.0000
     Starting wfcs are   82 randomized atomic wfcs

     total cpu time spent up to now is        5.8 secs

     Self-consistent Calculation

     iteration #  1     ecut=    60.00 Ry     beta= 0.30
     Davidson diagonalization with overlap
     ethr =  1.00E-02,  avg # of iterations =  3.8

     total cpu time spent up to now is       17.3 secs

     total energy              =   -1114.75249468 Ry
     estimated scf accuracy    <     109.08354696 Ry

     iteration #  2     ecut=    60.00 Ry     beta= 0.30
     Davidson diagonalization with overlap
     ethr =  1.00E-02,  avg # of iterations =  3.8

     total cpu time spent up to now is       30.6 secs

     total energy              =   -1155.55908358 Ry
     estimated scf accuracy    <     104.84574743 Ry

     iteration #  3     ecut=    60.00 Ry     beta= 0.30
     Davidson diagonalization with overlap
     ethr =  1.00E-02,  avg # of iterations =  4.8

     total cpu time spent up to now is       43.3 secs

     total energy              =   -1158.83009763 Ry
     estimated scf accuracy    <      24.27129437 Ry

     iteration #  4     ecut=    60.00 Ry     beta= 0.30
     Davidson diagonalization with overlap
     ethr =  1.00E-02,  avg # of iterations =  2.5

     total cpu time spent up to now is       51.3 secs

     total energy              =   -1156.38569518 Ry
     estimated scf accuracy    <      13.96488092 Ry

     iteration #  5     ecut=    60.00 Ry     beta= 0.30
     Davidson diagonalization with overlap
     ethr =  1.00E-02,  avg # of iterations =  2.0

     total cpu time spent up to now is       57.8 secs

     total energy              =   -1157.73594945 Ry
     estimated scf accuracy    <       1.06570046 Ry

     iteration #  6     ecut=    60.00 Ry     beta= 0.30
     Davidson diagonalization with overlap
     ethr =  1.67E-03,  avg # of iterations =  1.7

     total cpu time spent up to now is       65.4 secs

     total energy              =   -1156.86792992 Ry
     estimated scf accuracy    <       2.50612185 Ry

     iteration #  7     ecut=    60.00 Ry     beta= 0.30
     Davidson diagonalization with overlap
     ethr =  1.67E-03,  avg # of iterations =  4.5

     total cpu time spent up to now is       77.4 secs

     total energy              =   -1155.39279579 Ry
     estimated scf accuracy    <      20.93552211 Ry

     iteration #  8     ecut=    60.00 Ry     beta= 0.30
     Davidson diagonalization with overlap
     ethr =  1.67E-03,  avg # of iterations =  3.0

     total cpu time spent up to now is       85.7 secs

     total energy              =   -1157.06413470 Ry
     estimated scf accuracy    <       3.55984203 Ry

     iteration #  9     ecut=    60.00 Ry     beta= 0.30
     Davidson diagonalization with overlap
     ethr =  1.67E-03,  avg # of iterations =  3.2

     total cpu time spent up to now is       93.9 secs

     total energy              =   -1157.40286923 Ry
     estimated scf accuracy    <       1.02815949 Ry

     iteration # 10     ecut=    60.00 Ry     beta= 0.30
     Davidson diagonalization with overlap
     ethr =  1.61E-03,  avg # of iterations =  1.0

     total cpu time spent up to now is       99.0 secs

     total energy              =   -1157.38861346 Ry
     estimated scf accuracy    <       0.70939515 Ry

     iteration # 11     ecut=    60.00 Ry     beta= 0.30
     Davidson diagonalization with overlap
     ethr =  1.11E-03,  avg # of iterations =  1.0

     total cpu time spent up to now is      104.0 secs

     total energy              =   -1157.40653080 Ry
     estimated scf accuracy    <       0.18100700 Ry

     iteration # 12     ecut=    60.00 Ry     beta= 0.30
     Davidson diagonalization with overlap
     ethr =  2.83E-04,  avg # of iterations =  1.0

     total cpu time spent up to now is      109.1 secs

     total energy              =   -1157.37556801 Ry
     estimated scf accuracy    <       0.67715257 Ry

     iteration # 13     ecut=    60.00 Ry     beta= 0.30
     Davidson diagonalization with overlap
     ethr =  2.83E-04,  avg # of iterations =  1.0

     total cpu time spent up to now is      114.2 secs

     total energy              =   -1157.39496819 Ry
     estimated scf accuracy    <       0.03233023 Ry

     iteration # 14     ecut=    60.00 Ry     beta= 0.30
     Davidson diagonalization with overlap
     ethr =  5.05E-05,  avg # of iterations =  1.6

     total cpu time spent up to now is      121.4 secs

     total energy              =   -1157.38684015 Ry
     estimated scf accuracy    <       0.22600934 Ry

     iteration # 15     ecut=    60.00 Ry     beta= 0.30
     Davidson diagonalization with overlap
     ethr =  5.05E-05,  avg # of iterations =  1.4

     total cpu time spent up to now is      127.4 secs

     total energy              =   -1157.39076319 Ry
     estimated scf accuracy    <       0.02148059 Ry

     iteration # 16     ecut=    60.00 Ry     beta= 0.30
     Davidson diagonalization with overlap
     ethr =  3.36E-05,  avg # of iterations =  1.1

     total cpu time spent up to now is      133.1 secs

     total energy              =   -1157.38995862 Ry
     estimated scf accuracy    <       0.01649419 Ry

     iteration # 17     ecut=    60.00 Ry     beta= 0.30
     Davidson diagonalization with overlap
     ethr =  2.58E-05,  avg # of iterations =  1.1

     total cpu time spent up to now is      138.9 secs

     total energy              =   -1157.39074053 Ry
     estimated scf accuracy    <       0.00079351 Ry

     iteration # 18     ecut=    60.00 Ry     beta= 0.30
     Davidson diagonalization with overlap
     ethr =  1.24E-06,  avg # of iterations =  5.7

     total cpu time spent up to now is      156.5 secs

     total energy              =   -1157.39114057 Ry
     estimated scf accuracy    <       0.00392991 Ry

     iteration # 19     ecut=    60.00 Ry     beta= 0.30
     Davidson diagonalization with overlap
     ethr =  1.24E-06,  avg # of iterations =  1.0

     total cpu time spent up to now is      161.7 secs

     total energy              =   -1157.39125679 Ry
     estimated scf accuracy    <       0.00081823 Ry

     iteration # 20     ecut=    60.00 Ry     beta= 0.30
     Davidson diagonalization with overlap
     ethr =  1.24E-06,  avg # of iterations =  1.0

     total cpu time spent up to now is      166.8 secs

     total energy              =   -1157.39102497 Ry
     estimated scf accuracy    <       0.00278413 Ry

     iteration # 21     ecut=    60.00 Ry     beta= 0.30
     Davidson diagonalization with overlap
     ethr =  1.24E-06,  avg # of iterations =  1.6

     total cpu time spent up to now is      174.0 secs

     total energy              =   -1157.39115104 Ry
     estimated scf accuracy    <       0.00001429 Ry

     iteration # 22     ecut=    60.00 Ry     beta= 0.30
     Davidson diagonalization with overlap
     ethr =  2.23E-08,  avg # of iterations =  4.6

     total cpu time spent up to now is      185.8 secs

     total energy              =   -1157.39116829 Ry
     estimated scf accuracy    <       0.00003930 Ry

     iteration # 23     ecut=    60.00 Ry     beta= 0.30
     Davidson diagonalization with overlap
     ethr =  2.23E-08,  avg # of iterations =  1.0

     total cpu time spent up to now is      190.9 secs

     total energy              =   -1157.39116800 Ry
     estimated scf accuracy    <       0.00001207 Ry

     iteration # 24     ecut=    60.00 Ry     beta= 0.30
     Davidson diagonalization with overlap
     ethr =  1.89E-08,  avg # of iterations =  1.2

     total cpu time spent up to now is      196.5 secs

     total energy              =   -1157.39116854 Ry
     estimated scf accuracy    <       0.00000035 Ry

     iteration # 25     ecut=    60.00 Ry     beta= 0.30
     Davidson diagonalization with overlap
     ethr =  5.44E-10,  avg # of iterations =  4.7

     total cpu time spent up to now is      208.3 secs

     total energy              =   -1157.39116868 Ry
     estimated scf accuracy    <       0.00000220 Ry

     iteration # 26     ecut=    60.00 Ry     beta= 0.30
     Davidson diagonalization with overlap
     ethr =  5.44E-10,  avg # of iterations =  3.0

     total cpu time spent up to now is      217.0 secs

     total energy              =   -1157.39116875 Ry
     estimated scf accuracy    <       0.00000004 Ry

     iteration # 27     ecut=    60.00 Ry     beta= 0.30
     Davidson diagonalization with overlap
     ethr =  5.94E-11,  avg # of iterations =  3.8

     total cpu time spent up to now is      226.8 secs

     total energy              =   -1157.39116877 Ry
     estimated scf accuracy    <       0.00000005 Ry

     iteration # 28     ecut=    60.00 Ry     beta= 0.30
     Davidson diagonalization with overlap
     ethr =  5.94E-11,  avg # of iterations =  1.0

     total cpu time spent up to now is      231.8 secs

     total energy              =   -1157.39116877 Ry
     estimated scf accuracy    <          4.0E-09 Ry

     iteration # 29     ecut=    60.00 Ry     beta= 0.30
     Davidson diagonalization with overlap
     ethr =  6.25E-12,  avg # of iterations =  3.5

     total cpu time spent up to now is      240.8 secs

     End of self-consistent calculation

     Number of k-points >= 100: set verbosity='high' to print the bands.

     the Fermi energy is     3.8357 ev

!    total energy              =   -1157.39116877 Ry
     estimated scf accuracy    <          7.8E-10 Ry
     smearing contrib. (-TS)   =      -0.00017932 Ry
     internal energy E=F+TS    =   -1157.39098944 Ry

     The total energy is F=E-TS. E is the sum of the following terms:
     one-electron contribution =    -871.07556874 Ry
     hartree contribution      =     451.80908003 Ry
     xc contribution           =     -93.00192978 Ry
     ewald contribution        =    -206.71454722 Ry
     DFT-D3 Dispersion         =      -0.31417600 Ry
     one-center paw contrib.   =    -438.09384772 Ry

     convergence has been achieved in  29 iterations

     Forces acting on atoms (cartesian axes, Ry/au):

     atom    1 type  1   force =     0.00093569    0.00054015    0.00095450
     atom    2 type  2   force =    -0.00735884    0.00405892   -0.01397129
     atom    3 type  2   force =    -0.00728945   -0.00420857    0.01404511
     atom    4 type  2   force =    -0.00771048    0.00255555    0.01272540
     atom    5 type  2   force =    -0.00194042   -0.00112030    0.00134697
     atom    6 type  2   force =    -0.00016429   -0.00840240   -0.01397129
     atom    7 type  2   force =    -0.00029323   -0.00016930   -0.00081961
     atom    8 type  2   force =    -0.00164207   -0.00795525    0.01272540
     atom    9 type  2   force =     0.00771057   -0.00255552   -0.01272542
     atom   10 type  2   force =     0.00728950    0.00420859   -0.01404511
     atom   11 type  2   force =     0.00735891   -0.00405891    0.01397129
     atom   12 type  1   force =    -0.00093614   -0.00054041   -0.00095442
     atom   13 type  2   force =     0.00164214    0.00795531   -0.01272543
     atom   14 type  2   force =     0.00029330    0.00016934    0.00081957
     atom   15 type  2   force =     0.00016434    0.00840246    0.01397130
     atom   16 type  2   force =     0.00194047    0.00112033   -0.00134696

     Total force =     0.050305     Total SCF correction =     0.000032


     Computing stress (Cartesian axis) and pressure

          total   stress  (Ry/bohr**3)                   (kbar)     P=      -62.40
  -0.00041502   0.00000691   0.00001811          -61.05        1.02        2.66
   0.00000691  -0.00042300   0.00001046            1.02      -62.22        1.54
   0.00001811   0.00001046  -0.00043445            2.66        1.54      -63.91


     BFGS Geometry Optimization
     Energy error            =      4.1E-02 Ry
     Gradient error          =      1.4E-02 Ry/Bohr
     Cell gradient error     =      6.4E+01 kbar

     number of scf cycles    =   1
     number of bfgs steps    =   0

     enthalpy           new  =   -1157.3911687668 Ry

     new trust radius        =       0.1086148232 bohr
     new conv_thr            =       0.0000000010 Ry

     new unit-cell volume =   2415.82422 a.u.^3 (   357.98821 Ang^3 )
     density =      2.12285 g/cm^3

CELL_PARAMETERS (angstrom)
   6.333596420   0.001104820   0.002898257
  -3.165841408   5.483398175  -0.000000003
   0.004718724   0.002724351  10.306826009

ATOMIC_POSITIONS (angstrom)
Ni               0.0013990589        1.8286071015        1.2893362061
Mg               1.5814713883        0.9174121710        3.8587116496
Mg              -0.0005462718        1.8274839974        6.4495985936
Mg               1.5836528612        0.9179908706        9.0260981996
Mg              -1.5830278798        4.5694366011        1.2895407138
Mg               0.0023172377        3.6525873993        3.8587116465
Mg              -1.5798063402        4.5712965549        6.4418201949
Mg               0.0039091448        3.6541872569        9.0260981999
Mg               3.1717416217        1.8275374015        1.2836260520
Mg               4.7559407367        0.9180442737        3.8601256684
Mg               3.1739230884        1.8281160948        6.4510126185
Ni               4.7539951443        0.9169210212        9.0203880990
Mg               1.5856439220        4.5747392083        1.2836260486
Mg               3.1693594098        3.6576299016        3.8679040472
Mg               1.5872358223        4.5763390641        6.4510126177
Mg               3.1725809411        3.6594898507        9.0201835488



     Writing config-only to output data dir ./outdir/mgni.save/ :
     XML data file
     NEW-OLD atomic charge density approx. for the potential
     New effective cutoffs (rho, wfc):  490.59   61.36

     total cpu time spent up to now is      246.6 secs

     Self-consistent Calculation

     iteration #  1     ecut=    60.00 Ry     beta= 0.30
     Davidson diagonalization with overlap
     ethr =  1.00E-06,  avg # of iterations =  6.1

     total cpu time spent up to now is      262.6 secs

     total energy              =   -1157.33941064 Ry
     estimated scf accuracy    <       0.18820385 Ry

     iteration #  2     ecut=    60.00 Ry     beta= 0.30
     Davidson diagonalization with overlap
     ethr =  2.94E-04,  avg # of iterations =  3.1

     total cpu time spent up to now is      271.3 secs

     total energy              =   -1157.33877355 Ry
     estimated scf accuracy    <       2.17756716 Ry

     iteration #  3     ecut=    60.00 Ry     beta= 0.30
     Davidson diagonalization with overlap
     ethr =  2.94E-04,  avg # of iterations =  3.0

     total cpu time spent up to now is      279.7 secs

     total energy              =   -1157.42329585 Ry
     estimated scf accuracy    <       0.08535550 Ry

     iteration #  4     ecut=    60.00 Ry     beta= 0.30
     Davidson diagonalization with overlap
     ethr =  1.33E-04,  avg # of iterations =  1.0

     total cpu time spent up to now is      284.8 secs

     total energy              =   -1157.42357640 Ry
     estimated scf accuracy    <       0.02200616 Ry

     iteration #  5     ecut=    60.00 Ry     beta= 0.30
     Davidson diagonalization with overlap
     ethr =  3.44E-05,  avg # of iterations =  2.1

     total cpu time spent up to now is      293.7 secs

     total energy              =   -1157.42464628 Ry
     estimated scf accuracy    <       0.00063844 Ry

     iteration #  6     ecut=    60.00 Ry     beta= 0.30
     Davidson diagonalization with overlap
     ethr =  9.98E-07,  avg # of iterations =  4.6

     total cpu time spent up to now is      307.0 secs

     total energy              =   -1157.42573781 Ry
     estimated scf accuracy    <       0.01244196 Ry

     iteration #  7     ecut=    60.00 Ry     beta= 0.30
     Davidson diagonalization with overlap
     ethr =  9.98E-07,  avg # of iterations =  1.0

     total cpu time spent up to now is      312.0 secs

     total energy              =   -1157.42393904 Ry
     estimated scf accuracy    <       0.01262811 Ry

     iteration #  8     ecut=    60.00 Ry     beta= 0.30
     Davidson diagonalization with overlap
     ethr =  9.98E-07,  avg # of iterations =  4.0

     total cpu time spent up to now is      321.7 secs

     total energy              =   -1157.42499510 Ry
     estimated scf accuracy    <       0.00678427 Ry

     iteration #  9     ecut=    60.00 Ry     beta= 0.30
     Davidson diagonalization with overlap
     ethr =  9.98E-07,  avg # of iterations =  3.1

     total cpu time spent up to now is      329.5 secs

     total energy              =   -1157.42520800 Ry
     estimated scf accuracy    <       0.00009613 Ry

     iteration # 10     ecut=    60.00 Ry     beta= 0.30
     Davidson diagonalization with overlap
     ethr =  1.50E-07,  avg # of iterations =  2.4

     total cpu time spent up to now is      337.5 secs

     total energy              =   -1157.42521576 Ry
     estimated scf accuracy    <       0.00001151 Ry

     iteration # 11     ecut=    60.00 Ry     beta= 0.30
     Davidson diagonalization with overlap
     ethr =  1.80E-08,  avg # of iterations =  3.8

     total cpu time spent up to now is      347.2 secs

     total energy              =   -1157.42521671 Ry
     estimated scf accuracy    <       0.00003203 Ry

     iteration # 12     ecut=    60.00 Ry     beta= 0.30
     Davidson diagonalization with overlap
     ethr =  1.80E-08,  avg # of iterations =  3.0

     total cpu time spent up to now is      354.9 secs

     total energy              =   -1157.42521942 Ry
     estimated scf accuracy    <       0.00001371 Ry

     iteration # 13     ecut=    60.00 Ry     beta= 0.30
     Davidson diagonalization with overlap
     ethr =  1.80E-08,  avg # of iterations =  1.0

     total cpu time spent up to now is      360.0 secs

     total energy              =   -1157.42521989 Ry
     estimated scf accuracy    <       0.00000061 Ry

     iteration # 14     ecut=    60.00 Ry     beta= 0.30
     Davidson diagonalization with overlap
     ethr =  9.50E-10,  avg # of iterations =  4.6

     total cpu time spent up to now is      372.5 secs

     total energy              =   -1157.42522025 Ry
     estimated scf accuracy    <       0.00000004 Ry

     iteration # 15     ecut=    60.00 Ry     beta= 0.30
     Davidson diagonalization with overlap
     ethr =  5.67E-11,  avg # of iterations =  2.8

     total cpu time spent up to now is      381.4 secs

     total energy              =   -1157.42522025 Ry
     estimated scf accuracy    <       0.00000004 Ry

     iteration # 16     ecut=    60.00 Ry     beta= 0.30
     Davidson diagonalization with overlap
     ethr =  5.67E-11,  avg # of iterations =  1.0

     total cpu time spent up to now is      386.4 secs

     total energy              =   -1157.42522025 Ry
     estimated scf accuracy    <       0.00000001 Ry

     iteration # 17     ecut=    60.00 Ry     beta= 0.30
     Davidson diagonalization with overlap
     ethr =  1.65E-11,  avg # of iterations =  1.3

     total cpu time spent up to now is      392.6 secs

     total energy              =   -1157.42522025 Ry
     estimated scf accuracy    <          5.8E-09 Ry

     iteration # 18     ecut=    60.00 Ry     beta= 0.30
     Davidson diagonalization with overlap
     ethr =  9.13E-12,  avg # of iterations =  2.8

     total cpu time spent up to now is      401.9 secs

     End of self-consistent calculation

     Number of k-points >= 100: set verbosity='high' to print the bands.

     the Fermi energy is     4.0487 ev

!    total energy              =   -1157.42522025 Ry
     estimated scf accuracy    <          9.3E-11 Ry
     smearing contrib. (-TS)   =      -0.00038094 Ry
     internal energy E=F+TS    =   -1157.42483931 Ry

     The total energy is F=E-TS. E is the sum of the following terms:
     one-electron contribution =    -867.70209384 Ry
     hartree contribution      =     450.61978223 Ry
     xc contribution           =     -93.14939481 Ry
     ewald contribution        =    -208.73794922 Ry
     DFT-D3 Dispersion         =      -0.32376694 Ry
     one-center paw contrib.   =    -438.13141674 Ry

     convergence has been achieved in  18 iterations

     Forces acting on atoms (cartesian axes, Ry/au):

     atom    1 type  1   force =     0.00076529    0.00044181    0.00091761
     atom    2 type  2   force =    -0.00706858    0.00413216   -0.01393886
     atom    3 type  2   force =    -0.00713507   -0.00411944    0.01418404
     atom    4 type  2   force =    -0.00807972    0.00249966    0.01304726
     atom    5 type  2   force =    -0.00188236   -0.00108678    0.00139744
     atom    6 type  2   force =     0.00004426   -0.00818765   -0.01393886
     atom    7 type  2   force =    -0.00009463   -0.00005463   -0.00103923
     atom    8 type  2   force =    -0.00187509   -0.00824707    0.01304726
     atom    9 type  2   force =     0.00807974   -0.00249966   -0.01304708
     atom   10 type  2   force =     0.00713509    0.00411945   -0.01418394
     atom   11 type  2   force =     0.00706858   -0.00413215    0.01393897
     atom   12 type  1   force =    -0.00076536   -0.00044185   -0.00091858
     atom   13 type  2   force =     0.00187510    0.00824709   -0.01304708
     atom   14 type  2   force =     0.00009464    0.00005464    0.00103934
     atom   15 type  2   force =    -0.00004426    0.00818764    0.01393896
     atom   16 type  2   force =     0.00188237    0.00108678   -0.00139725

     Total force =     0.050688     Total SCF correction =     0.000006


     Computing stress (Cartesian axis) and pressure

          total   stress  (Ry/bohr**3)                   (kbar)     P=      -55.10
  -0.00036377   0.00000686   0.00001853          -53.51        1.01        2.73
   0.00000686  -0.00037170   0.00001070            1.01      -54.68        1.57
   0.00001853   0.00001070  -0.00038818            2.73        1.57      -57.10

     Energy error            =      3.4E-02 Ry
     Gradient error          =      1.4E-02 Ry/Bohr
     Cell gradient error     =      5.7E+01 kbar

     number of scf cycles    =   2
     number of bfgs steps    =   1

     enthalpy           old  =   -1157.3911687668 Ry
     enthalpy           new  =   -1157.4252202542 Ry

     CASE: enthalpy          _new < enthalpy          _old


     WARNING: bfgs curvature condition failed, Theta= 0.915
     new trust radius        =       0.1621063292 bohr
     new conv_thr            =       0.0000000010 Ry

     new unit-cell volume =   2302.39325 a.u.^3 (   341.17948 Ang^3 )
     density =      2.22744 g/cm^3

CELL_PARAMETERS (angstrom)
   6.235732578   0.002938893   0.007837304
  -3.115321133   5.395894485  -0.000000006
   0.012759333   0.007366594  10.137123334

ATOMIC_POSITIONS (angstrom)
Ni               0.0036038288        1.8007120986        1.2697334380
Mg               1.5541999658        0.9086806993        3.7848325287
Mg              -0.0010760084        1.7980102540        6.3564125155
Mg               1.5596427085        0.9102264144        8.8903312919
Mg              -1.5578442407        4.4964726936        1.2703326904
Mg               0.0063799901        3.5895835407        3.7848325241
Mg              -1.5490909766        4.5015263862        6.3357119941
Mg               0.0104399931        3.5935242278        8.8903312897
Mg               3.1311887019        1.7980263326        1.2546294620
Mg               4.6919073960        0.9102424990        3.7885481977
Mg               3.1366314207        1.7995720459        6.3601281932
Ni               4.6872271864        0.9075404405        8.8752265011
Mg               1.5650702677        4.5106230361        1.2546294580
Mg               3.1246012388        3.6026208587        3.8092486948
Mg               1.5691302597        4.5145637045        6.3601281904
Mg               3.1333544940        3.6076745462        8.8746280855



     Writing config-only to output data dir ./outdir/mgni.save/ :
     XML data file
     NEW-OLD atomic charge density approx. for the potential
     New effective cutoffs (rho, wfc):  507.58   63.49

     total cpu time spent up to now is      407.7 secs

     Self-consistent Calculation

     iteration #  1     ecut=    60.00 Ry     beta= 0.30
     Davidson diagonalization with overlap
     ethr =  1.00E-06,  avg # of iterations =  7.0

     total cpu time spent up to now is      424.8 secs

     total energy              =   -1157.26250323 Ry
     estimated scf accuracy    <       0.43573258 Ry

     iteration #  2     ecut=    60.00 Ry     beta= 0.30
     Davidson diagonalization with overlap
     ethr =  6.81E-04,  avg # of iterations =  3.1

     total cpu time spent up to now is      433.3 secs

     total energy              =   -1157.32652120 Ry
     estimated scf accuracy    <       3.55789771 Ry

     iteration #  3     ecut=    60.00 Ry     beta= 0.30
     Davidson diagonalization with overlap
     ethr =  6.81E-04,  avg # of iterations =  2.6

     total cpu time spent up to now is      441.2 secs

     total energy              =   -1157.45637492 Ry
     estimated scf accuracy    <       0.27052538 Ry

     iteration #  4     ecut=    60.00 Ry     beta= 0.30
     Davidson diagonalization with overlap
     ethr =  4.23E-04,  avg # of iterations =  1.0

     total cpu time spent up to now is      446.2 secs

     total energy              =   -1157.45637642 Ry
     estimated scf accuracy    <       0.07545642 Ry

     iteration #  5     ecut=    60.00 Ry     beta= 0.30
     Davidson diagonalization with overlap
     ethr =  1.18E-04,  avg # of iterations =  2.0

     total cpu time spent up to now is      455.0 secs

     total energy              =   -1157.45962629 Ry
     estimated scf accuracy    <       0.00319772 Ry

     iteration #  6     ecut=    60.00 Ry     beta= 0.30
     Davidson diagonalization with overlap
     ethr =  5.00E-06,  avg # of iterations =  5.1

     total cpu time spent up to now is      470.2 secs

     total energy              =   -1157.45721419 Ry
     estimated scf accuracy    <       0.04371621 Ry

     iteration #  7     ecut=    60.00 Ry     beta= 0.30
     Davidson diagonalization with overlap
     ethr =  5.00E-06,  avg # of iterations =  4.0

     total cpu time spent up to now is      480.0 secs

     total energy              =   -1157.46138780 Ry
     estimated scf accuracy    <       0.02106302 Ry

     iteration #  8     ecut=    60.00 Ry     beta= 0.30
     Davidson diagonalization with overlap
     ethr =  5.00E-06,  avg # of iterations =  1.4

     total cpu time spent up to now is      486.2 secs

     total energy              =   -1157.46127360 Ry
     estimated scf accuracy    <       0.00363881 Ry

     iteration #  9     ecut=    60.00 Ry     beta= 0.30
     Davidson diagonalization with overlap
     ethr =  5.00E-06,  avg # of iterations =  2.4

     total cpu time spent up to now is      493.8 secs

     total energy              =   -1157.46156968 Ry
     estimated scf accuracy    <       0.00191154 Ry

     iteration # 10     ecut=    60.00 Ry     beta= 0.30
     Davidson diagonalization with overlap
     ethr =  2.99E-06,  avg # of iterations =  1.0

     total cpu time spent up to now is      498.8 secs

     total energy              =   -1157.46169903 Ry
     estimated scf accuracy    <       0.00003539 Ry

     iteration # 11     ecut=    60.00 Ry     beta= 0.30
     Davidson diagonalization with overlap
     ethr =  5.53E-08,  avg # of iterations =  4.3

     total cpu time spent up to now is      509.3 secs

     total energy              =   -1157.46171825 Ry
     estimated scf accuracy    <       0.00013288 Ry

     iteration # 12     ecut=    60.00 Ry     beta= 0.30
     Davidson diagonalization with overlap
     ethr =  5.53E-08,  avg # of iterations =  1.0

     total cpu time spent up to now is      514.3 secs

     total energy              =   -1157.46171353 Ry
     estimated scf accuracy    <       0.00010874 Ry

     iteration # 13     ecut=    60.00 Ry     beta= 0.30
     Davidson diagonalization with overlap
     ethr =  5.53E-08,  avg # of iterations =  1.0

     total cpu time spent up to now is      519.4 secs

     total energy              =   -1157.46171301 Ry
     estimated scf accuracy    <       0.00002913 Ry

     iteration # 14     ecut=    60.00 Ry     beta= 0.30
     Davidson diagonalization with overlap
     ethr =  4.55E-08,  avg # of iterations =  1.1

     total cpu time spent up to now is      524.8 secs

     total energy              =   -1157.46171370 Ry
     estimated scf accuracy    <       0.00000347 Ry

     iteration # 15     ecut=    60.00 Ry     beta= 0.30
     Davidson diagonalization with overlap
     ethr =  5.42E-09,  avg # of iterations =  3.2

     total cpu time spent up to now is      532.9 secs

     total energy              =   -1157.46171423 Ry
     estimated scf accuracy    <       0.00000003 Ry

     iteration # 16     ecut=    60.00 Ry     beta= 0.30
     Davidson diagonalization with overlap
     ethr =  5.09E-11,  avg # of iterations =  6.3

     total cpu time spent up to now is      550.2 secs

     total energy              =   -1157.46171445 Ry
     estimated scf accuracy    <       0.00000027 Ry

     iteration # 17     ecut=    60.00 Ry     beta= 0.30
     Davidson diagonalization with overlap
     ethr =  5.09E-11,  avg # of iterations =  1.0

     total cpu time spent up to now is      555.2 secs

     total energy              =   -1157.46171444 Ry
     estimated scf accuracy    <       0.00000015 Ry

     iteration # 18     ecut=    60.00 Ry     beta= 0.30
     Davidson diagonalization with overlap
     ethr =  5.09E-11,  avg # of iterations =  1.3

     total cpu time spent up to now is      561.2 secs

     total energy              =   -1157.46171444 Ry
     estimated scf accuracy    <       0.00000004 Ry

     iteration # 19     ecut=    60.00 Ry     beta= 0.30
     Davidson diagonalization with overlap
     ethr =  5.09E-11,  avg # of iterations =  1.5

     total cpu time spent up to now is      568.0 secs

     total energy              =   -1157.46171445 Ry
     estimated scf accuracy    <          1.2E-09 Ry

     iteration # 20     ecut=    60.00 Ry     beta= 0.30
     Davidson diagonalization with overlap
     ethr =  1.92E-12,  avg # of iterations =  4.3

     total cpu time spent up to now is      579.7 secs

     End of self-consistent calculation

     Number of k-points >= 100: set verbosity='high' to print the bands.

     the Fermi energy is     4.3810 ev

!    total energy              =   -1157.46171445 Ry
     estimated scf accuracy    <          6.3E-11 Ry
     smearing contrib. (-TS)   =      -0.00061549 Ry
     internal energy E=F+TS    =   -1157.46109896 Ry

     The total energy is F=E-TS. E is the sum of the following terms:
     one-electron contribution =    -862.64179257 Ry
     hartree contribution      =     448.86496485 Ry
     xc contribution           =     -93.37851488 Ry
     ewald contribution        =    -211.78020616 Ry
     DFT-D3 Dispersion         =      -0.33339665 Ry
     one-center paw contrib.   =    -438.19215355 Ry

     convergence has been achieved in  20 iterations

     Forces acting on atoms (cartesian axes, Ry/au):

     atom    1 type  1   force =    -0.00339692   -0.00196120   -0.00790588
     atom    2 type  2   force =     0.00616784   -0.00301603    0.00677124
     atom    3 type  2   force =     0.00594176    0.00343048   -0.00643602
     atom    4 type  2   force =     0.00488154   -0.00487068   -0.00675301
     atom    5 type  2   force =    -0.00179806   -0.00103812    0.00206944
     atom    6 type  2   force =     0.00047196    0.00684952    0.00677124
     atom    7 type  2   force =     0.00030444    0.00017577   -0.00200808
     atom    8 type  2   force =    -0.00177736    0.00666287   -0.00675300
     atom    9 type  2   force =    -0.00488151    0.00487061    0.00675295
     atom   10 type  2   force =    -0.00594185   -0.00343053    0.00643618
     atom   11 type  2   force =    -0.00616780    0.00301599   -0.00677111
     atom   12 type  1   force =     0.00339704    0.00196127    0.00790541
     atom   13 type  2   force =     0.00177731   -0.00666282    0.00675295
     atom   14 type  2   force =    -0.00030446   -0.00017578    0.00200814
     atom   15 type  2   force =    -0.00047197   -0.00684946   -0.00677110
     atom   16 type  2   force =     0.00179804    0.00103811   -0.00206936

     Total force =     0.033209     Total SCF correction =     0.000017


     Computing stress (Cartesian axis) and pressure

          total   stress  (Ry/bohr**3)                   (kbar)     P=       27.42
   0.00020060  -0.00000709  -0.00001781           29.51       -1.04       -2.62
  -0.00000709   0.00020878  -0.00001028           -1.04       30.71       -1.51
  -0.00001781  -0.00001028   0.00014975           -2.62       -1.51       22.03

     Energy error            =      3.6E-02 Ry
     Gradient error          =      7.9E-03 Ry/Bohr
     Cell gradient error     =      3.1E+01 kbar

     number of scf cycles    =   3
     number of bfgs steps    =   2

     enthalpy           old  =   -1157.4252202542 Ry
     enthalpy           new  =   -1157.4617144474 Ry

     CASE: enthalpy          _new < enthalpy          _old

     new trust radius        =       0.0532794182 bohr
     new conv_thr            =       0.0000000008 Ry

     new unit-cell volume =   2338.44593 a.u.^3 (   346.52194 Ang^3 )
     density =      2.19310 g/cm^3

CELL_PARAMETERS (angstrom)
   6.269168721   0.001969956   0.005366270
  -3.132878329   5.426304441  -0.000000005
   0.008721204   0.005035180  10.184465923

ATOMIC_POSITIONS (angstrom)
Ni               0.0015744559        1.8096770999        1.2724640904
Mg               1.5637607303        0.9111102762        3.8055320840
Mg              -0.0011217804        1.8081204803        6.3819308381
Mg               1.5668079274        0.9110124584        8.9272851045
Mg              -1.5678178399        4.5211243870        1.2763922074
Mg               0.0044858489        3.6118535950        3.8055320793
Mg              -1.5605551411        4.5253175042        6.3643144139
Mg               0.0059247384        3.6145414479        8.9272851034
Mg               3.1446429032        1.8091448924        1.2625471732
Mg               4.7125725515        0.9120368805        3.8079014752
Mg               3.1476900853        1.8090470809        6.3843002319
Ni               4.7098760337        0.9104800999        8.9173673213
Mg               1.5726477243        4.5319204128        1.2625471689
Mg               3.1391276119        3.6211443161        3.8255178446
Mg               1.5740866142        4.5346082504        6.3843002303
Mg               3.1463903063        3.6253374308        8.9134401367



     Writing config-only to output data dir ./outdir/mgni.save/ :
     XML data file
     NEW-OLD atomic charge density approx. for the potential
     New effective cutoffs (rho, wfc):  502.48   62.85

     total cpu time spent up to now is      585.5 secs

     Self-consistent Calculation

     iteration #  1     ecut=    60.00 Ry     beta= 0.30
     Davidson diagonalization with overlap
     ethr =  1.00E-06,  avg # of iterations =  4.8

     total cpu time spent up to now is      598.0 secs

     total energy              =   -1157.44123707 Ry
     estimated scf accuracy    <       0.03067655 Ry

     iteration #  2     ecut=    60.00 Ry     beta= 0.30
     Davidson diagonalization with overlap
     ethr =  4.79E-05,  avg # of iterations =  3.8

     total cpu time spent up to now is      608.0 secs

     total energy              =   -1157.38340746 Ry
     estimated scf accuracy    <       1.97217875 Ry

     iteration #  3     ecut=    60.00 Ry     beta= 0.30
     Davidson diagonalization with overlap
     ethr =  4.79E-05,  avg # of iterations =  3.6

     total cpu time spent up to now is      617.6 secs

     total energy              =   -1157.45478292 Ry
     estimated scf accuracy    <       0.00336837 Ry

     iteration #  4     ecut=    60.00 Ry     beta= 0.30
     Davidson diagonalization with overlap
     ethr =  5.26E-06,  avg # of iterations =  1.3

     total cpu time spent up to now is      624.0 secs

     total energy              =   -1157.45475555 Ry
     estimated scf accuracy    <       0.00123129 Ry

     iteration #  5     ecut=    60.00 Ry     beta= 0.30
     Davidson diagonalization with overlap
     ethr =  1.92E-06,  avg # of iterations =  1.2

     total cpu time spent up to now is      630.1 secs

     total energy              =   -1157.45479709 Ry
     estimated scf accuracy    <       0.00006216 Ry

     iteration #  6     ecut=    60.00 Ry     beta= 0.30
     Davidson diagonalization with overlap
     ethr =  9.71E-08,  avg # of iterations =  3.6

     total cpu time spent up to now is      639.0 secs

     total energy              =   -1157.45481012 Ry
     estimated scf accuracy    <       0.00006450 Ry

     iteration #  7     ecut=    60.00 Ry     beta= 0.30
     Davidson diagonalization with overlap
     ethr =  9.71E-08,  avg # of iterations =  1.0

     total cpu time spent up to now is      644.1 secs

     total energy              =   -1157.45481160 Ry
     estimated scf accuracy    <       0.00004677 Ry

     iteration #  8     ecut=    60.00 Ry     beta= 0.30
     Davidson diagonalization with overlap
     ethr =  7.31E-08,  avg # of iterations =  1.0

     total cpu time spent up to now is      649.2 secs

     total energy              =   -1157.45481145 Ry
     estimated scf accuracy    <       0.00000958 Ry

     iteration #  9     ecut=    60.00 Ry     beta= 0.30
     Davidson diagonalization with overlap
     ethr =  1.50E-08,  avg # of iterations =  2.9

     total cpu time spent up to now is      657.6 secs

     total energy              =   -1157.45481276 Ry
     estimated scf accuracy    <       0.00000475 Ry

     iteration # 10     ecut=    60.00 Ry     beta= 0.30
     Davidson diagonalization with overlap
     ethr =  7.42E-09,  avg # of iterations =  1.1

     total cpu time spent up to now is      663.3 secs

     total energy              =   -1157.45481277 Ry
     estimated scf accuracy    <       0.00000139 Ry

     iteration # 11     ecut=    60.00 Ry     beta= 0.30
     Davidson diagonalization with overlap
     ethr =  2.17E-09,  avg # of iterations =  4.4

     total cpu time spent up to now is      674.9 secs

     total energy              =   -1157.45481310 Ry
     estimated scf accuracy    <       0.00000021 Ry

     iteration # 12     ecut=    60.00 Ry     beta= 0.30
     Davidson diagonalization with overlap
     ethr =  3.35E-10,  avg # of iterations =  4.8

     total cpu time spent up to now is      687.3 secs

     total energy              =   -1157.45481320 Ry
     estimated scf accuracy    <       0.00000006 Ry

     iteration # 13     ecut=    60.00 Ry     beta= 0.30
     Davidson diagonalization with overlap
     ethr =  9.47E-11,  avg # of iterations =  1.7

     total cpu time spent up to now is      694.5 secs

     total energy              =   -1157.45481321 Ry
     estimated scf accuracy    <          2.9E-09 Ry

     iteration # 14     ecut=    60.00 Ry     beta= 0.30
     Davidson diagonalization with overlap
     ethr =  4.50E-12,  avg # of iterations =  4.9

     total cpu time spent up to now is      706.5 secs

     total energy              =   -1157.45481321 Ry
     estimated scf accuracy    <          6.1E-09 Ry

     iteration # 15     ecut=    60.00 Ry     beta= 0.30
     Davidson diagonalization with overlap
     ethr =  4.50E-12,  avg # of iterations =  1.0

     total cpu time spent up to now is      711.6 secs

     End of self-consistent calculation

     Number of k-points >= 100: set verbosity='high' to print the bands.

     the Fermi energy is     4.2717 ev

!    total energy              =   -1157.45481321 Ry
     estimated scf accuracy    <          5.2E-10 Ry
     smearing contrib. (-TS)   =      -0.00057185 Ry
     internal energy E=F+TS    =   -1157.45424135 Ry

     The total energy is F=E-TS. E is the sum of the following terms:
     one-electron contribution =    -864.54099886 Ry
     hartree contribution      =     449.56029457 Ry
     xc contribution           =     -93.30342938 Ry
     ewald contribution        =    -210.66428961 Ry
     DFT-D3 Dispersion         =      -0.33383278 Ry
     one-center paw contrib.   =    -438.17198529 Ry

     convergence has been achieved in  15 iterations

     Forces acting on atoms (cartesian axes, Ry/au):

     atom    1 type  1   force =     0.00053906    0.00031123    0.00079770
     atom    2 type  2   force =    -0.00677338    0.00425121   -0.01364746
     atom    3 type  2   force =    -0.00698350   -0.00403193    0.01399107
     atom    4 type  2   force =    -0.00843108    0.00262434    0.01327123
     atom    5 type  2   force =    -0.00161551   -0.00093272    0.00134625
     atom    6 type  2   force =     0.00029496   -0.00799153   -0.01364746
     atom    7 type  2   force =     0.00016379    0.00009457   -0.00125900
     atom    8 type  2   force =    -0.00194280   -0.00861370    0.01327123
     atom    9 type  2   force =     0.00843100   -0.00262431   -0.01327064
     atom   10 type  2   force =     0.00698345    0.00403190   -0.01399039
     atom   11 type  2   force =     0.00677336   -0.00425123    0.01364814
     atom   12 type  1   force =    -0.00053876   -0.00031106   -0.00080220
     atom   13 type  2   force =     0.00194278    0.00861361   -0.01327064
     atom   14 type  2   force =    -0.00016384   -0.00009460    0.00125966
     atom   15 type  2   force =    -0.00029499    0.00799152    0.01364814
     atom   16 type  2   force =     0.00161546    0.00093268   -0.00134565

     Total force =     0.050543     Total SCF correction =     0.000041


     Computing stress (Cartesian axis) and pressure

          total   stress  (Ry/bohr**3)                   (kbar)     P=      -46.20
  -0.00030258   0.00000689   0.00001903          -44.51        1.01        2.80
   0.00000689  -0.00031053   0.00001099            1.01      -45.68        1.62
   0.00001903   0.00001099  -0.00032902            2.80        1.62      -48.40

     Energy error            =      6.9E-03 Ry
     Gradient error          =      1.4E-02 Ry/Bohr
     Cell gradient error     =      4.8E+01 kbar

     number of scf cycles    =   4
     number of bfgs steps    =   3

     enthalpy           old  =   -1157.4617144474 Ry
     enthalpy           new  =   -1157.4548132085 Ry

     CASE: enthalpy          _new > enthalpy          _old

     new trust radius        =       0.0141752358 bohr
     new conv_thr            =       0.0000000008 Ry

     new unit-cell volume =   2311.92783 a.u.^3 (   342.59236 Ang^3 )
     density =      2.21825 g/cm^3

CELL_PARAMETERS (angstrom)
   6.244608748   0.002681673   0.007181328
  -3.119981977   5.403967304  -0.000000006
   0.011687346   0.006747682  10.149691197

ATOMIC_POSITIONS (angstrom)
Ni               0.0030661598        1.8030926172        1.2704607257
Mg               1.5567352648        0.9093275225        3.7903242263
Mg              -0.0010913341        1.8006923456        6.3631904663
Mg               1.5615418345        0.9104370734        8.9001447801
Mg              -1.5604914481        4.5030171462        1.2719407546
Mg               0.0058773826        3.5954921720        3.7903242217
Mg              -1.5521344922        4.5078420310        6.3433055014
Mg               0.0092415699        3.5990999999        8.9001447782
Mg               3.1347633375        1.8009759451        1.2567278522
Mg               4.6973964736        0.9107206799        3.7936821456
Mg               3.1395698857        1.8020854963        6.3665483926
Ni               4.6932386313        0.9083202083        8.8864110784
Mg               1.5670816023        4.5162803644        1.2567278482
Mg               3.1284576676        3.6075383086        3.8135670781
Mg               1.5704457817        4.5198881745        6.3665483901
Mg               3.1368146159        3.6123631890        8.8849319115



     Writing config-only to output data dir ./outdir/mgni.save/ :
     XML data file
     NEW-OLD atomic charge density approx. for the potential
     New effective cutoffs (rho, wfc):  506.16   63.32

     total cpu time spent up to now is      717.4 secs

     Self-consistent Calculation

     iteration #  1     ecut=    60.00 Ry     beta= 0.30
     Davidson diagonalization with overlap
     ethr =  1.00E-06,  avg # of iterations =  4.3

     total cpu time spent up to now is      729.0 secs

     total energy              =   -1157.45378636 Ry
     estimated scf accuracy    <       0.02013404 Ry

     iteration #  2     ecut=    60.00 Ry     beta= 0.30
     Davidson diagonalization with overlap
     ethr =  3.15E-05,  avg # of iterations =  3.4

     total cpu time spent up to now is      738.7 secs

     total energy              =   -1157.44483267 Ry
     estimated scf accuracy    <       0.41642316 Ry

     iteration #  3     ecut=    60.00 Ry     beta= 0.30
     Davidson diagonalization with overlap
     ethr =  3.15E-05,  avg # of iterations =  3.2

     total cpu time spent up to now is      747.4 secs

     total energy              =   -1157.46275141 Ry
     estimated scf accuracy    <       0.00127186 Ry

     iteration #  4     ecut=    60.00 Ry     beta= 0.30
     Davidson diagonalization with overlap
     ethr =  1.99E-06,  avg # of iterations =  2.2

     total cpu time spent up to now is      755.0 secs

     total energy              =   -1157.46278160 Ry
     estimated scf accuracy    <       0.00029162 Ry

     iteration #  5     ecut=    60.00 Ry     beta= 0.30
     Davidson diagonalization with overlap
     ethr =  4.56E-07,  avg # of iterations =  2.5

     total cpu time spent up to now is      763.0 secs

     total energy              =   -1157.46281679 Ry
     estimated scf accuracy    <       0.00007960 Ry

     iteration #  6     ecut=    60.00 Ry     beta= 0.30
     Davidson diagonalization with overlap
     ethr =  1.24E-07,  avg # of iterations =  1.4

     total cpu time spent up to now is      769.8 secs

     total energy              =   -1157.46281516 Ry
     estimated scf accuracy    <       0.00006230 Ry

     iteration #  7     ecut=    60.00 Ry     beta= 0.30
     Davidson diagonalization with overlap
     ethr =  9.73E-08,  avg # of iterations =  1.0

     total cpu time spent up to now is      774.9 secs

     total energy              =   -1157.46281417 Ry
     estimated scf accuracy    <       0.00001902 Ry

     iteration #  8     ecut=    60.00 Ry     beta= 0.30
     Davidson diagonalization with overlap
     ethr =  2.97E-08,  avg # of iterations =  2.5

     total cpu time spent up to now is      782.8 secs

     total energy              =   -1157.46281602 Ry
     estimated scf accuracy    <       0.00000286 Ry

     iteration #  9     ecut=    60.00 Ry     beta= 0.30
     Davidson diagonalization with overlap
     ethr =  4.47E-09,  avg # of iterations =  4.0

     total cpu time spent up to now is      792.5 secs

     total energy              =   -1157.46281648 Ry
     estimated scf accuracy    <       0.00000049 Ry

     iteration # 10     ecut=    60.00 Ry     beta= 0.30
     Davidson diagonalization with overlap
     ethr =  7.67E-10,  avg # of iterations =  4.3

     total cpu time spent up to now is      803.2 secs

     total energy              =   -1157.46281655 Ry
     estimated scf accuracy    <       0.00000021 Ry

     iteration # 11     ecut=    60.00 Ry     beta= 0.30
     Davidson diagonalization with overlap
     ethr =  3.22E-10,  avg # of iterations =  3.5

     total cpu time spent up to now is      813.8 secs

     total energy              =   -1157.46281658 Ry
     estimated scf accuracy    <       0.00000002 Ry

     iteration # 12     ecut=    60.00 Ry     beta= 0.30
     Davidson diagonalization with overlap
     ethr =  2.46E-11,  avg # of iterations =  4.7

     total cpu time spent up to now is      826.5 secs

     total energy              =   -1157.46281660 Ry
     estimated scf accuracy    <       0.00000001 Ry

     iteration # 13     ecut=    60.00 Ry     beta= 0.30
     Davidson diagonalization with overlap
     ethr =  2.13E-11,  avg # of iterations =  1.0

     total cpu time spent up to now is      831.6 secs

     total energy              =   -1157.46281660 Ry
     estimated scf accuracy    <          2.1E-09 Ry

     iteration # 14     ecut=    60.00 Ry     beta= 0.30
     Davidson diagonalization with overlap
     ethr =  3.31E-12,  avg # of iterations =  2.3

     total cpu time spent up to now is      839.4 secs

     End of self-consistent calculation

     Number of k-points >= 100: set verbosity='high' to print the bands.

     the Fermi energy is     4.3518 ev

!    total energy              =   -1157.46281660 Ry
     estimated scf accuracy    <          6.4E-11 Ry
     smearing contrib. (-TS)   =      -0.00060484 Ry
     internal energy E=F+TS    =   -1157.46221176 Ry

     The total energy is F=E-TS. E is the sum of the following terms:
     one-electron contribution =    -863.14713307 Ry
     hartree contribution      =     449.04941070 Ry
     xc contribution           =     -93.35841190 Ry
     ewald contribution        =    -211.48303770 Ry
     DFT-D3 Dispersion         =      -0.33630818 Ry
     one-center paw contrib.   =    -438.18673160 Ry

     convergence has been achieved in  14 iterations

     Forces acting on atoms (cartesian axes, Ry/au):

     atom    1 type  1   force =    -0.00122233   -0.00070571   -0.00302537
     atom    2 type  2   force =    -0.00091349    0.00100972   -0.00460078
     atom    3 type  2   force =    -0.00116446   -0.00067230    0.00498692
     atom    4 type  2   force =    -0.00257127   -0.00079457    0.00441731
     atom    5 type  2   force =    -0.00172946   -0.00099851    0.00170301
     atom    6 type  2   force =     0.00041770   -0.00129597   -0.00460078
     atom    7 type  2   force =     0.00026408    0.00015247   -0.00163021
     atom    8 type  2   force =    -0.00197375   -0.00182950    0.00441731
     atom    9 type  2   force =     0.00257129    0.00079489   -0.00441692
     atom   10 type  2   force =     0.00116496    0.00067259   -0.00498719
     atom   11 type  2   force =     0.00091356   -0.00100942    0.00460049
     atom   12 type  1   force =     0.00122060    0.00070471    0.00302535
     atom   13 type  2   force =     0.00197404    0.00182936   -0.00441692
     atom   14 type  2   force =    -0.00026380   -0.00015231    0.00163025
     atom   15 type  2   force =    -0.00041740    0.00129588    0.00460049
     atom   16 type  2   force =     0.00172975    0.00099867   -0.00170294

     Total force =     0.017147     Total SCF correction =     0.000021


     Computing stress (Cartesian axis) and pressure

          total   stress  (Ry/bohr**3)                   (kbar)     P=      -12.52
  -0.00007197   0.00000062   0.00000272          -10.59        0.09        0.40
   0.00000062  -0.00007269   0.00000157            0.09      -10.69        0.23
   0.00000272   0.00000157  -0.00011074            0.40        0.23      -16.29

     Energy error            =      1.1E-03 Ry
     Gradient error          =      5.0E-03 Ry/Bohr
     Cell gradient error     =      1.6E+01 kbar

     number of scf cycles    =   5
     number of bfgs steps    =   3

     enthalpy           old  =   -1157.4617144474 Ry
     enthalpy           new  =   -1157.4628166008 Ry

     CASE: enthalpy          _new < enthalpy          _old

     new trust radius        =       0.0109515855 bohr
     new conv_thr            =       0.0000000005 Ry

     new unit-cell volume =   2308.80491 a.u.^3 (   342.12959 Ang^3 )
     density =      2.22125 g/cm^3

CELL_PARAMETERS (angstrom)
   6.243823606   0.002480520   0.006809339
  -3.119763610   5.403589080  -0.000000005
   0.011068742   0.006390532  10.138151667

ATOMIC_POSITIONS (angstrom)
Ni               0.0020406812        1.8023744851        1.2668276673
Mg               1.5567150891        0.9090548648        3.7850406659
Mg              -0.0012160932        1.8004942418        6.3569344664
Mg               1.5604452275        0.9090798350        8.8906834861
Mg              -1.5613927678        4.5021185435        1.2713261618
Mg               0.0057403497        3.5954219158        3.7850406610
Mg              -1.5523394013        4.5073455030        6.3351777814
Mg               0.0076270473        3.5986398188        8.8906834848
Mg               3.1345653927        1.8015858703        1.2542777561
Mg               4.6962268329        0.9101714620        3.7880265535
Mg               3.1382955299        1.8016108387        6.3599203522
Ni               4.6929689558        0.9082905832        8.8781325420
Mg               1.5676200239        4.5156148632        1.2542777519
Mg               3.1275864764        3.6069092512        3.8097833015
Mg               1.5695067217        4.5188327671        6.3599203504
Mg               3.1366398399        3.6121362090        8.8736350216



     Writing config-only to output data dir ./outdir/mgni.save/ :
     XML data file
     NEW-OLD atomic charge density approx. for the potential
     New effective cutoffs (rho, wfc):  507.16   63.44

     total cpu time spent up to now is      845.3 secs

     Self-consistent Calculation

     iteration #  1     ecut=    60.00 Ry     beta= 0.30
     Davidson diagonalization with overlap
     ethr =  1.00E-06,  avg # of iterations =  3.0

     total cpu time spent up to now is      854.6 secs

     total energy              =   -1157.46303147 Ry
     estimated scf accuracy    <       0.00011440 Ry

     iteration #  2     ecut=    60.00 Ry     beta= 0.30
     Davidson diagonalization with overlap
     ethr =  1.79E-07,  avg # of iterations =  3.0

     total cpu time spent up to now is      862.6 secs

     total energy              =   -1157.46302035 Ry
     estimated scf accuracy    <       0.00044763 Ry

     iteration #  3     ecut=    60.00 Ry     beta= 0.30
     Davidson diagonalization with overlap
     ethr =  1.79E-07,  avg # of iterations =  3.1

     total cpu time spent up to now is      870.6 secs

     total energy              =   -1157.46304764 Ry
     estimated scf accuracy    <       0.00031544 Ry

     iteration #  4     ecut=    60.00 Ry     beta= 0.30
     Davidson diagonalization with overlap
     ethr =  1.79E-07,  avg # of iterations =  2.0

     total cpu time spent up to now is      877.4 secs

     total energy              =   -1157.46306370 Ry
     estimated scf accuracy    <       0.00000528 Ry

     iteration #  5     ecut=    60.00 Ry     beta= 0.30
     Davidson diagonalization with overlap
     ethr =  8.25E-09,  avg # of iterations =  2.8

     total cpu time spent up to now is      884.7 secs

     total energy              =   -1157.46306451 Ry
     estimated scf accuracy    <       0.00000084 Ry

     iteration #  6     ecut=    60.00 Ry     beta= 0.30
     Davidson diagonalization with overlap
     ethr =  1.31E-09,  avg # of iterations =  3.1

     total cpu time spent up to now is      893.0 secs

     total energy              =   -1157.46306440 Ry
     estimated scf accuracy    <       0.00000490 Ry

     iteration #  7     ecut=    60.00 Ry     beta= 0.30
     Davidson diagonalization with overlap
     ethr =  1.31E-09,  avg # of iterations =  2.8

     total cpu time spent up to now is      900.5 secs

     total energy              =   -1157.46306459 Ry
     estimated scf accuracy    <       0.00000017 Ry

     iteration #  8     ecut=    60.00 Ry     beta= 0.30
     Davidson diagonalization with overlap
     ethr =  2.67E-10,  avg # of iterations =  2.2

     total cpu time spent up to now is      908.6 secs

     total energy              =   -1157.46306461 Ry
     estimated scf accuracy    <          8.4E-09 Ry

     iteration #  9     ecut=    60.00 Ry     beta= 0.30
     Davidson diagonalization with overlap
     ethr =  1.31E-11,  avg # of iterations =  5.0

     total cpu time spent up to now is      921.0 secs

     total energy              =   -1157.46306463 Ry
     estimated scf accuracy    <          9.8E-09 Ry

     iteration # 10     ecut=    60.00 Ry     beta= 0.30
     Davidson diagonalization with overlap
     ethr =  1.31E-11,  avg # of iterations =  1.0

     total cpu time spent up to now is      926.3 secs

     total energy              =   -1157.46306463 Ry
     estimated scf accuracy    <          1.2E-09 Ry

     iteration # 11     ecut=    60.00 Ry     beta= 0.30
     Davidson diagonalization with overlap
     ethr =  1.86E-12,  avg # of iterations =  2.9

     total cpu time spent up to now is      935.0 secs

     End of self-consistent calculation

     Number of k-points >= 100: set verbosity='high' to print the bands.

     the Fermi energy is     4.3611 ev

!    total energy              =   -1157.46306463 Ry
     estimated scf accuracy    <          4.3E-10 Ry
     smearing contrib. (-TS)   =      -0.00063085 Ry
     internal energy E=F+TS    =   -1157.46243378 Ry

     The total energy is F=E-TS. E is the sum of the following terms:
     one-electron contribution =    -863.25525336 Ry
     hartree contribution      =     449.12482867 Ry
     xc contribution           =     -93.36483130 Ry
     ewald contribution        =    -211.44284738 Ry
     DFT-D3 Dispersion         =      -0.33584906 Ry
     one-center paw contrib.   =    -438.18848134 Ry

     convergence has been achieved in  11 iterations

     Forces acting on atoms (cartesian axes, Ry/au):

     atom    1 type  1   force =    -0.00210561   -0.00121567   -0.00502037
     atom    2 type  2   force =     0.00220500   -0.00077072    0.00076199
     atom    3 type  2   force =     0.00199415    0.00115132   -0.00051505
     atom    4 type  2   force =     0.00104317   -0.00251643   -0.00090135
     atom    5 type  2   force =    -0.00157822   -0.00091119    0.00178584
     atom    6 type  2   force =     0.00043503    0.00229495    0.00076199
     atom    7 type  2   force =     0.00028467    0.00016436   -0.00174209
     atom    8 type  2   force =    -0.00165771    0.00216162   -0.00090135
     atom    9 type  2   force =    -0.00104318    0.00251667    0.00090075
     atom   10 type  2   force =    -0.00199377   -0.00115110    0.00051410
     atom   11 type  2   force =    -0.00220500    0.00077094   -0.00076294
     atom   12 type  1   force =     0.00210450    0.00121502    0.00502596
     atom   13 type  2   force =     0.00165791   -0.00216176    0.00090074
     atom   14 type  2   force =    -0.00028447   -0.00016424    0.00174144
     atom   15 type  2   force =    -0.00043485   -0.00229506   -0.00076294
     atom   16 type  2   force =     0.00157839    0.00091129   -0.00178673

     Total force =     0.012239     Total SCF correction =     0.000021


     Computing stress (Cartesian axis) and pressure

          total   stress  (Ry/bohr**3)                   (kbar)     P=        5.88
   0.00005247  -0.00000273  -0.00000669            7.72       -0.40       -0.98
  -0.00000273   0.00005562  -0.00000386           -0.40        8.18       -0.57
  -0.00000669  -0.00000386   0.00001181           -0.98       -0.57        1.74

     Energy error            =      2.5E-04 Ry
     Gradient error          =      5.0E-03 Ry/Bohr
     Cell gradient error     =      8.2E+00 kbar

     number of scf cycles    =   6
     number of bfgs steps    =   4

     enthalpy           old  =   -1157.4628166008 Ry
     enthalpy           new  =   -1157.4630646263 Ry

     CASE: enthalpy          _new < enthalpy          _old

     new trust radius        =       0.0114825615 bohr
     new conv_thr            =       0.0000000002 Ry

     new unit-cell volume =   2308.36780 a.u.^3 (   342.06482 Ang^3 )
     density =      2.22168 g/cm^3

CELL_PARAMETERS (angstrom)
   6.246685529   0.002061916   0.005893730
  -3.121557092   5.406695482  -0.000000004
   0.009555179   0.005516677  10.126155949

ATOMIC_POSITIONS (angstrom)
Ni               0.0001848110        1.8023384709        1.2614981186
Mg               1.5578052478        0.9089458445        3.7794295442
Mg              -0.0014695913        1.8013833527        6.3503459241
Mg               1.5596526896        0.9070389873        8.8805618800
Mg              -1.5639812706        4.5037304701        1.2711460409
Mg               0.0052942729        3.5979737313        3.7794295391
Mg              -1.5540731245        4.5094509399        6.3261002054
Mg               0.0045666112        3.6005270879        8.8805618797
Mg               3.1358095453        1.8038876801        1.2514878239
Mg               4.6969322902        0.9095432907        3.7817031930
Mg               3.1376570084        1.8019808022        6.3526195647
Ni               4.6952753614        0.9085867150        8.8705537201
Mg               1.5693387841        4.5170946251        1.2514878194
Mg               3.1279785212        3.6081710653        3.8059492187
Mg               1.5686111170        4.5196480111        6.3526195640
Mg               3.1378866506        3.6138915255        8.8609033659



     Writing config-only to output data dir ./outdir/mgni.save/ :
     XML data file
     NEW-OLD atomic charge density approx. for the potential
     New effective cutoffs (rho, wfc):  508.27   63.56

     total cpu time spent up to now is      940.8 secs

     Self-consistent Calculation

     iteration #  1     ecut=    60.00 Ry     beta= 0.30
     Davidson diagonalization with overlap
     ethr =  1.00E-06,  avg # of iterations =  4.1

     total cpu time spent up to now is      952.1 secs

     total energy              =   -1157.46311006 Ry
     estimated scf accuracy    <       0.00054270 Ry

     iteration #  2     ecut=    60.00 Ry     beta= 0.30
     Davidson diagonalization with overlap
     ethr =  8.48E-07,  avg # of iterations =  3.2

     total cpu time spent up to now is      961.1 secs

     total energy              =   -1157.46277326 Ry
     estimated scf accuracy    <       0.01091637 Ry

     iteration #  3     ecut=    60.00 Ry     beta= 0.30
     Davidson diagonalization with overlap
     ethr =  8.48E-07,  avg # of iterations =  3.2

     total cpu time spent up to now is      969.7 secs

     total energy              =   -1157.46328510 Ry
     estimated scf accuracy    <       0.00025433 Ry

     iteration #  4     ecut=    60.00 Ry     beta= 0.30
     Davidson diagonalization with overlap
     ethr =  3.97E-07,  avg # of iterations =  1.4

     total cpu time spent up to now is      975.8 secs

     total energy              =   -1157.46330475 Ry
     estimated scf accuracy    <       0.00000947 Ry

     iteration #  5     ecut=    60.00 Ry     beta= 0.30
     Davidson diagonalization with overlap
     ethr =  1.48E-08,  avg # of iterations =  3.3

     total cpu time spent up to now is      984.8 secs

     total energy              =   -1157.46330736 Ry
     estimated scf accuracy    <       0.00001554 Ry

     iteration #  6     ecut=    60.00 Ry     beta= 0.30
     Davidson diagonalization with overlap
     ethr =  1.48E-08,  avg # of iterations =  1.1

     total cpu time spent up to now is      990.2 secs

     total energy              =   -1157.46330733 Ry
     estimated scf accuracy    <       0.00000446 Ry

     iteration #  7     ecut=    60.00 Ry     beta= 0.30
     Davidson diagonalization with overlap
     ethr =  6.97E-09,  avg # of iterations =  2.1

     total cpu time spent up to now is      996.9 secs

     total energy              =   -1157.46330774 Ry
     estimated scf accuracy    <       0.00000072 Ry

     iteration #  8     ecut=    60.00 Ry     beta= 0.30
     Davidson diagonalization with overlap
     ethr =  1.12E-09,  avg # of iterations =  2.1

     total cpu time spent up to now is     1003.5 secs

     total energy              =   -1157.46330779 Ry
     estimated scf accuracy    <       0.00000012 Ry

     iteration #  9     ecut=    60.00 Ry     beta= 0.30
     Davidson diagonalization with overlap
     ethr =  1.92E-10,  avg # of iterations =  5.3

     total cpu time spent up to now is     1016.6 secs

     total energy              =   -1157.46330784 Ry
     estimated scf accuracy    <          8.7E-09 Ry

     iteration # 10     ecut=    60.00 Ry     beta= 0.30
     Davidson diagonalization with overlap
     ethr =  1.36E-11,  avg # of iterations =  4.9

     total cpu time spent up to now is     1028.9 secs

     total energy              =   -1157.46330785 Ry
     estimated scf accuracy    <          4.8E-09 Ry

     iteration # 11     ecut=    60.00 Ry     beta= 0.30
     Davidson diagonalization with overlap
     ethr =  7.53E-12,  avg # of iterations =  1.8

     total cpu time spent up to now is     1036.2 secs

     total energy              =   -1157.46330785 Ry
     estimated scf accuracy    <          1.3E-09 Ry

     iteration # 12     ecut=    60.00 Ry     beta= 0.30
     Davidson diagonalization with overlap
     ethr =  2.05E-12,  avg # of iterations =  3.3

     total cpu time spent up to now is     1045.5 secs

     End of self-consistent calculation

     Number of k-points >= 100: set verbosity='high' to print the bands.

     the Fermi energy is     4.3620 ev

!    total energy              =   -1157.46330785 Ry
     estimated scf accuracy    <          2.2E-10 Ry
     smearing contrib. (-TS)   =      -0.00066200 Ry
     internal energy E=F+TS    =   -1157.46264585 Ry

     The total energy is F=E-TS. E is the sum of the following terms:
     one-electron contribution =    -863.66387578 Ry
     hartree contribution      =     449.33162393 Ry
     xc contribution           =     -93.36561527 Ry
     ewald contribution        =    -211.24018341 Ry
     DFT-D3 Dispersion         =      -0.33588178 Ry
     one-center paw contrib.   =    -438.18871353 Ry

     convergence has been achieved in  12 iterations

     Forces acting on atoms (cartesian axes, Ry/au):

     atom    1 type  1   force =    -0.00190129   -0.00109771   -0.00460142
     atom    2 type  2   force =     0.00202105   -0.00066852    0.00096840
     atom    3 type  2   force =     0.00184712    0.00106644   -0.00087768
     atom    4 type  2   force =     0.00130003   -0.00229150   -0.00115165
     atom    5 type  2   force =    -0.00131631   -0.00075998    0.00166707
     atom    6 type  2   force =     0.00043157    0.00208454    0.00096839
     atom    7 type  2   force =     0.00029541    0.00017056   -0.00166755
     atom    8 type  2   force =    -0.00133448    0.00227161   -0.00115165
     atom    9 type  2   force =    -0.00129987    0.00229102    0.00114885
     atom   10 type  2   force =    -0.00184795   -0.00106691    0.00087729
     atom   11 type  2   force =    -0.00202069    0.00066808   -0.00096888
     atom   12 type  1   force =     0.00190255    0.00109843    0.00461167
     atom   13 type  2   force =     0.00133415   -0.00227123    0.00114885
     atom   14 type  2   force =    -0.00029563   -0.00017068    0.00166620
     atom   15 type  2   force =    -0.00043177   -0.00208400   -0.00096888
     atom   16 type  2   force =     0.00131612    0.00075986   -0.00166900

     Total force =     0.011560     Total SCF correction =     0.000055


     Computing stress (Cartesian axis) and pressure

          total   stress  (Ry/bohr**3)                   (kbar)     P=        6.46
   0.00005475  -0.00000243  -0.00000657            8.05       -0.36       -0.97
  -0.00000243   0.00005756  -0.00000379           -0.36        8.47       -0.56
  -0.00000657  -0.00000379   0.00001942           -0.97       -0.56        2.86

     Energy error            =      2.4E-04 Ry
     Gradient error          =      4.6E-03 Ry/Bohr
     Cell gradient error     =      8.5E+00 kbar

     number of scf cycles    =   7
     number of bfgs steps    =   5

     enthalpy           old  =   -1157.4630646263 Ry
     enthalpy           new  =   -1157.4633078505 Ry

     CASE: enthalpy          _new < enthalpy          _old


     WARNING: bfgs curvature condition failed, Theta= 0.928
     new trust radius        =       0.0126447803 bohr
     new conv_thr            =       0.0000000002 Ry

     new unit-cell volume =   2308.13173 a.u.^3 (   342.02984 Ang^3 )
     density =      2.22190 g/cm^3

CELL_PARAMETERS (angstrom)
   6.250174083   0.001613988   0.004826143
  -3.123689287   5.410388549  -0.000000004
   0.007789205   0.004497093  10.112977066

ATOMIC_POSITIONS (angstrom)
Ni              -0.0019315235        1.8023476325        1.2554425654
Mg               1.5590361471        0.9089163523        3.7731962067
Mg              -0.0018293385        1.8024066762        6.3430841971
Mg               1.5588748543        0.9047332897        8.8694267681
Mg              -1.5669413304        4.5057145445        1.2710536504
Mg               0.0048180840        3.6009010009        3.7731962014
Mg              -1.5560820833        4.5119841358        6.3159816110
Mg               0.0011148036        3.6028528481        8.8694267686
Mg               3.1372439614        1.8065722447        1.2483749159
Mg               4.6979482385        0.9088988257        3.7747180548
Mg               3.1370828294        1.8023891757        6.3446059720
Ni               4.6980482318        0.9089566040        8.8623692115
Mg               1.5713147953        4.5188411155        1.2483749111
Mg               3.1285117510        3.6097099479        3.8018205160
Mg               1.5676115915        4.5207931055        6.3446059723
Mg               3.1393709960        3.6159795384        8.8467481134



     Writing config-only to output data dir ./outdir/mgni.save/ :
     XML data file
     NEW-OLD atomic charge density approx. for the potential
     New effective cutoffs (rho, wfc):  509.51   63.70

     total cpu time spent up to now is     1051.3 secs

     Self-consistent Calculation

     iteration #  1     ecut=    60.00 Ry     beta= 0.30
     Davidson diagonalization with overlap
     ethr =  1.00E-06,  avg # of iterations =  4.2

     total cpu time spent up to now is     1063.3 secs

     total energy              =   -1157.46327677 Ry
     estimated scf accuracy    <       0.00074895 Ry

     iteration #  2     ecut=    60.00 Ry     beta= 0.30
     Davidson diagonalization with overlap
     ethr =  1.17E-06,  avg # of iterations =  3.2

     total cpu time spent up to now is     1072.4 secs

     total energy              =   -1157.46278993 Ry
     estimated scf accuracy    <       0.01586566 Ry

     iteration #  3     ecut=    60.00 Ry     beta= 0.30
     Davidson diagonalization with overlap
     ethr =  1.17E-06,  avg # of iterations =  3.1

     total cpu time spent up to now is     1080.8 secs

     total energy              =   -1157.46352403 Ry
     estimated scf accuracy    <       0.00031429 Ry

     iteration #  4     ecut=    60.00 Ry     beta= 0.30
     Davidson diagonalization with overlap
     ethr =  4.91E-07,  avg # of iterations =  1.5

     total cpu time spent up to now is     1087.0 secs

     total energy              =   -1157.46354911 Ry
     estimated scf accuracy    <       0.00001287 Ry

     iteration #  5     ecut=    60.00 Ry     beta= 0.30
     Davidson diagonalization with overlap
     ethr =  2.01E-08,  avg # of iterations =  3.1

     total cpu time spent up to now is     1095.5 secs

     total energy              =   -1157.46355221 Ry
     estimated scf accuracy    <       0.00002265 Ry

     iteration #  6     ecut=    60.00 Ry     beta= 0.30
     Davidson diagonalization with overlap
     ethr =  2.01E-08,  avg # of iterations =  1.1

     total cpu time spent up to now is     1100.9 secs

     total energy              =   -1157.46355233 Ry
     estimated scf accuracy    <       0.00000506 Ry

     iteration #  7     ecut=    60.00 Ry     beta= 0.30
     Davidson diagonalization with overlap
     ethr =  7.91E-09,  avg # of iterations =  2.2

     total cpu time spent up to now is     1108.0 secs

     total energy              =   -1157.46355284 Ry
[...]

     Initial potential from superposition of free atoms

     starting charge      59.9871, renormalised to      64.0000
     Starting wfcs are   82 randomized atomic wfcs

     total cpu time spent up to now is     3559.4 secs

     Self-consistent Calculation

     iteration #  1     ecut=    60.00 Ry     beta= 0.30
     Davidson diagonalization with overlap
     c_bands:  1 eigenvalues not converged
     c_bands:  1 eigenvalues not converged
     c_bands:  3 eigenvalues not converged
     c_bands:  2 eigenvalues not converged
     c_bands:  1 eigenvalues not converged
     c_bands:  2 eigenvalues not converged
     c_bands:  2 eigenvalues not converged
     c_bands:  1 eigenvalues not converged
     c_bands:  1 eigenvalues not converged
     c_bands:  1 eigenvalues not converged
     c_bands:  1 eigenvalues not converged
     c_bands:  2 eigenvalues not converged
     c_bands:  2 eigenvalues not converged
     c_bands:  1 eigenvalues not converged
     c_bands:  2 eigenvalues not converged
     c_bands:  3 eigenvalues not converged
     c_bands:  1 eigenvalues not converged
     c_bands:  2 eigenvalues not converged
     c_bands:  3 eigenvalues not converged
     c_bands:  1 eigenvalues not converged
     c_bands:  3 eigenvalues not converged
     c_bands:  2 eigenvalues not converged
     c_bands:  3 eigenvalues not converged
     c_bands:  2 eigenvalues not converged
     c_bands:  1 eigenvalues not converged
     c_bands:  2 eigenvalues not converged
     c_bands:  1 eigenvalues not converged
     c_bands:  2 eigenvalues not converged
     c_bands:  2 eigenvalues not converged
     c_bands:  3 eigenvalues not converged
     c_bands:  2 eigenvalues not converged
     c_bands:  1 eigenvalues not converged
     c_bands:  3 eigenvalues not converged
     c_bands:  2 eigenvalues not converged
     c_bands:  1 eigenvalues not converged
     c_bands:  2 eigenvalues not converged
     c_bands:  2 eigenvalues not converged
     c_bands:  3 eigenvalues not converged
     c_bands:  1 eigenvalues not converged
     c_bands:  3 eigenvalues not converged
     c_bands:  1 eigenvalues not converged
     c_bands:  3 eigenvalues not converged
     c_bands:  1 eigenvalues not converged
     c_bands:  1 eigenvalues not converged
     c_bands:  1 eigenvalues not converged
     c_bands:  4 eigenvalues not converged
     c_bands:  2 eigenvalues not converged
     c_bands:  1 eigenvalues not converged
     c_bands:  2 eigenvalues not converged
     c_bands:  2 eigenvalues not converged
     c_bands:  1 eigenvalues not converged
     c_bands:  1 eigenvalues not converged
     c_bands:  3 eigenvalues not converged
     c_bands:  2 eigenvalues not converged
     c_bands:  2 eigenvalues not converged
     c_bands:  2 eigenvalues not converged
     c_bands:  1 eigenvalues not converged
     c_bands:  2 eigenvalues not converged
     c_bands:  3 eigenvalues not converged
     c_bands:  1 eigenvalues not converged
     c_bands:  3 eigenvalues not converged
     c_bands:  2 eigenvalues not converged
     c_bands:  2 eigenvalues not converged
     c_bands:  3 eigenvalues not converged
     c_bands:  1 eigenvalues not converged
     c_bands:  2 eigenvalues not converged
     c_bands:  2 eigenvalues not converged
     c_bands:  3 eigenvalues not converged
     c_bands:  2 eigenvalues not converged
     c_bands:  3 eigenvalues not converged
     c_bands:  2 eigenvalues not converged
     c_bands:  3 eigenvalues not converged
     c_bands:  1 eigenvalues not converged
     c_bands:  1 eigenvalues not converged
     c_bands:  2 eigenvalues not converged
     c_bands:  2 eigenvalues not converged
     c_bands:  1 eigenvalues not converged
     c_bands:  2 eigenvalues not converged
     c_bands:  3 eigenvalues not converged
     c_bands:  1 eigenvalues not converged
     c_bands:  1 eigenvalues not converged
     c_bands:  2 eigenvalues not converged
     c_bands:  2 eigenvalues not converged
     c_bands:  1 eigenvalues not converged
     c_bands:  2 eigenvalues not converged
     c_bands:  4 eigenvalues not converged
     c_bands:  1 eigenvalues not converged
     c_bands:  4 eigenvalues not converged
     c_bands:  1 eigenvalues not converged
     c_bands:  3 eigenvalues not converged
     c_bands:  1 eigenvalues not converged
     c_bands:  3 eigenvalues not converged
     c_bands:  2 eigenvalues not converged
     c_bands:  1 eigenvalues not converged
     c_bands:  3 eigenvalues not converged
     c_bands:  2 eigenvalues not converged
     c_bands:  1 eigenvalues not converged
     c_bands:  2 eigenvalues not converged
     c_bands:  4 eigenvalues not converged
     c_bands:  2 eigenvalues not converged
     c_bands:  2 eigenvalues not converged
     c_bands:  3 eigenvalues not converged
     c_bands:  2 eigenvalues not converged
     c_bands:  2 eigenvalues not converged
     c_bands:  1 eigenvalues not converged
     c_bands:  4 eigenvalues not converged
     c_bands:  2 eigenvalues not converged
     c_bands:  2 eigenvalues not converged
     c_bands:  3 eigenvalues not converged
     c_bands:  1 eigenvalues not converged
     c_bands:  1 eigenvalues not converged
     c_bands:  3 eigenvalues not converged
     ethr =  1.00E-06,  avg # of iterations = 19.8

     total cpu time spent up to now is     3597.0 secs

     total energy              =   -1117.18996086 Ry
     estimated scf accuracy    <     104.33192240 Ry

     iteration #  2     ecut=    60.00 Ry     beta= 0.30
     Davidson diagonalization with overlap
     ethr =  1.00E-02,  avg # of iterations =  3.1

     total cpu time spent up to now is     3606.7 secs

     total energy              =   -1155.50064677 Ry
     estimated scf accuracy    <      98.36135216 Ry

     iteration #  3     ecut=    60.00 Ry     beta= 0.30
     Davidson diagonalization with overlap
     ethr =  1.00E-02,  avg # of iterations =  4.6

     total cpu time spent up to now is     3618.8 secs

     total energy              =   -1158.65260591 Ry
     estimated scf accuracy    <      22.39085243 Ry

     iteration #  4     ecut=    60.00 Ry     beta= 0.30
     Davidson diagonalization with overlap
     ethr =  1.00E-02,  avg # of iterations =  2.6

     total cpu time spent up to now is     3627.0 secs

     total energy              =   -1156.48086422 Ry
     estimated scf accuracy    <      12.59814420 Ry

     iteration #  5     ecut=    60.00 Ry     beta= 0.30
     Davidson diagonalization with overlap
     ethr =  1.00E-02,  avg # of iterations =  2.0

     total cpu time spent up to now is     3633.3 secs

     total energy              =   -1157.79007673 Ry
     estimated scf accuracy    <       0.72365235 Ry

     iteration #  6     ecut=    60.00 Ry     beta= 0.30
     Davidson diagonalization with overlap
     ethr =  1.13E-03,  avg # of iterations =  2.3

     total cpu time spent up to now is     3640.4 secs

     total energy              =   -1157.13944725 Ry
     estimated scf accuracy    <       2.51550680 Ry

     iteration #  7     ecut=    60.00 Ry     beta= 0.30
     Davidson diagonalization with overlap
     ethr =  1.13E-03,  avg # of iterations =  3.9

     total cpu time spent up to now is     3652.7 secs

     total energy              =   -1157.43971323 Ry
     estimated scf accuracy    <       0.18351729 Ry

     iteration #  8     ecut=    60.00 Ry     beta= 0.30
     Davidson diagonalization with overlap
     ethr =  2.87E-04,  avg # of iterations =  2.8

     total cpu time spent up to now is     3662.3 secs

     total energy              =   -1157.28626591 Ry
     estimated scf accuracy    <       1.21556187 Ry

     iteration #  9     ecut=    60.00 Ry     beta= 0.30
     Davidson diagonalization with overlap
     ethr =  2.87E-04,  avg # of iterations =  4.3

     total cpu time spent up to now is     3672.7 secs

     total energy              =   -1157.38564182 Ry
     estimated scf accuracy    <       3.69570766 Ry

     iteration # 10     ecut=    60.00 Ry     beta= 0.30
     Davidson diagonalization with overlap
     ethr =  2.87E-04,  avg # of iterations =  2.9

     total cpu time spent up to now is     3680.4 secs

     total energy              =   -1157.46105667 Ry
     estimated scf accuracy    <       0.07288787 Ry

     iteration # 11     ecut=    60.00 Ry     beta= 0.30
     Davidson diagonalization with overlap
     ethr =  1.14E-04,  avg # of iterations =  1.0

     total cpu time spent up to now is     3685.2 secs

     total energy              =   -1157.46334746 Ry
     estimated scf accuracy    <       0.01286854 Ry

     iteration # 12     ecut=    60.00 Ry     beta= 0.30
     Davidson diagonalization with overlap
     ethr =  2.01E-05,  avg # of iterations =  2.7

     total cpu time spent up to now is     3695.6 secs

     total energy              =   -1157.46330309 Ry
     estimated scf accuracy    <       0.01001280 Ry

     iteration # 13     ecut=    60.00 Ry     beta= 0.30
     Davidson diagonalization with overlap
     ethr =  1.56E-05,  avg # of iterations =  2.5

     total cpu time spent up to now is     3703.7 secs

     total energy              =   -1157.46386579 Ry
     estimated scf accuracy    <       0.00119595 Ry

     iteration # 14     ecut=    60.00 Ry     beta= 0.30
     Davidson diagonalization with overlap
     ethr =  1.87E-06,  avg # of iterations =  5.3

     total cpu time spent up to now is     3719.3 secs

     total energy              =   -1157.46430455 Ry
     estimated scf accuracy    <       0.00229265 Ry

     iteration # 15     ecut=    60.00 Ry     beta= 0.30
     Davidson diagonalization with overlap
     ethr =  1.87E-06,  avg # of iterations =  1.0

     total cpu time spent up to now is     3724.2 secs

     total energy              =   -1157.46420153 Ry
     estimated scf accuracy    <       0.00299407 Ry

     iteration # 16     ecut=    60.00 Ry     beta= 0.30
     Davidson diagonalization with overlap
     ethr =  1.87E-06,  avg # of iterations =  1.0

     total cpu time spent up to now is     3729.1 secs

     total energy              =   -1157.46422679 Ry
     estimated scf accuracy    <       0.00087738 Ry

     iteration # 17     ecut=    60.00 Ry     beta= 0.30
     Davidson diagonalization with overlap
     ethr =  1.37E-06,  avg # of iterations =  1.0

     total cpu time spent up to now is     3733.8 secs

     total energy              =   -1157.46417876 Ry
     estimated scf accuracy    <       0.00070107 Ry

     iteration # 18     ecut=    60.00 Ry     beta= 0.30
     Davidson diagonalization with overlap
     ethr =  1.10E-06,  avg # of iterations =  1.0

     total cpu time spent up to now is     3738.8 secs

     total energy              =   -1157.46420299 Ry
     estimated scf accuracy    <       0.00003154 Ry

     iteration # 19     ecut=    60.00 Ry     beta= 0.30
     Davidson diagonalization with overlap
     ethr =  4.93E-08,  avg # of iterations =  4.3

     total cpu time spent up to now is     3749.8 secs

     total energy              =   -1157.46421596 Ry
     estimated scf accuracy    <       0.00000209 Ry

     iteration # 20     ecut=    60.00 Ry     beta= 0.30
     Davidson diagonalization with overlap
     ethr =  3.27E-09,  avg # of iterations =  4.0

     total cpu time spent up to now is     3760.0 secs

     total energy              =   -1157.46421605 Ry
     estimated scf accuracy    <       0.00002059 Ry

     iteration # 21     ecut=    60.00 Ry     beta= 0.30
     Davidson diagonalization with overlap
     ethr =  3.27E-09,  avg # of iterations =  1.8

     total cpu time spent up to now is     3766.2 secs

     total energy              =   -1157.46421603 Ry
     estimated scf accuracy    <       0.00000406 Ry

     iteration # 22     ecut=    60.00 Ry     beta= 0.30
     Davidson diagonalization with overlap
     ethr =  3.27E-09,  avg # of iterations =  1.6

     total cpu time spent up to now is     3772.7 secs

     total energy              =   -1157.46421617 Ry
     estimated scf accuracy    <       0.00000013 Ry

     iteration # 23     ecut=    60.00 Ry     beta= 0.30
     Davidson diagonalization with overlap
     ethr =  1.97E-10,  avg # of iterations =  4.7

     total cpu time spent up to now is     3784.9 secs

     total energy              =   -1157.46421624 Ry
     estimated scf accuracy    <       0.00000032 Ry

     iteration # 24     ecut=    60.00 Ry     beta= 0.30
     Davidson diagonalization with overlap
     ethr =  1.97E-10,  avg # of iterations =  1.1

     total cpu time spent up to now is     3790.3 secs

     total energy              =   -1157.46421625 Ry
     estimated scf accuracy    <       0.00000001 Ry

     iteration # 25     ecut=    60.00 Ry     beta= 0.30
     Davidson diagonalization with overlap
     ethr =  2.22E-11,  avg # of iterations =  3.7

     total cpu time spent up to now is     3799.4 secs

     total energy              =   -1157.46421625 Ry
     estimated scf accuracy    <          8.3E-09 Ry

     iteration # 26     ecut=    60.00 Ry     beta= 0.30
     Davidson diagonalization with overlap
     ethr =  1.29E-11,  avg # of iterations =  1.5

     total cpu time spent up to now is     3805.7 secs

     total energy              =   -1157.46421626 Ry
     estimated scf accuracy    <          1.3E-09 Ry

     iteration # 27     ecut=    60.00 Ry     beta= 0.30
     Davidson diagonalization with overlap
     ethr =  2.07E-12,  avg # of iterations =  4.1

     total cpu time spent up to now is     3816.4 secs

     total energy              =   -1157.46421626 Ry
     estimated scf accuracy    <          5.6E-10 Ry

     iteration # 28     ecut=    60.00 Ry     beta= 0.30
     Davidson diagonalization with overlap
     ethr =  8.80E-13,  avg # of iterations =  3.0

     total cpu time spent up to now is     3825.2 secs

     total energy              =   -1157.46421626 Ry
     estimated scf accuracy    <          2.4E-11 Ry

     iteration # 29     ecut=    60.00 Ry     beta= 0.30
     Davidson diagonalization with overlap
     ethr =  1.00E-13,  avg # of iterations =  4.1

     total cpu time spent up to now is     3835.7 secs

     total energy              =   -1157.46421626 Ry
     estimated scf accuracy    <          1.2E-11 Ry

     iteration # 30     ecut=    60.00 Ry     beta= 0.30
     Davidson diagonalization with overlap
     ethr =  1.00E-13,  avg # of iterations =  1.0

     total cpu time spent up to now is     3840.6 secs

     End of self-consistent calculation

     Number of k-points >= 100: set verbosity='high' to print the bands.

     the Fermi energy is     4.3613 ev

!    total energy              =   -1157.46421626 Ry
     estimated scf accuracy    <          1.9E-12 Ry
     smearing contrib. (-TS)   =      -0.00072158 Ry
     internal energy E=F+TS    =   -1157.46349468 Ry

     The total energy is F=E-TS. E is the sum of the following terms:
     one-electron contribution =    -868.77475122 Ry
     hartree contribution      =     451.88318343 Ry
     xc contribution           =     -93.36501105 Ry
     ewald contribution        =    -208.68144932 Ry
     DFT-D3 Dispersion         =      -0.33631668 Ry
     one-center paw contrib.   =    -438.18914984 Ry

     convergence has been achieved in  30 iterations

     Forces acting on atoms (cartesian axes, Ry/au):

     atom    1 type  1   force =    -0.00004704   -0.00002715    0.00000962
     atom    2 type  2   force =     0.00006577   -0.00000283    0.00007848
     atom    3 type  2   force =     0.00002083    0.00001202   -0.00004290
     atom    4 type  2   force =     0.00004262   -0.00003465   -0.00003461
     atom    5 type  2   force =    -0.00000871   -0.00000503    0.00008259
     atom    6 type  2   force =     0.00003044    0.00005837    0.00007848
     atom    7 type  2   force =     0.00000445    0.00000257    0.00000370
     atom    8 type  2   force =    -0.00000870    0.00005423   -0.00003461
     atom    9 type  2   force =    -0.00004223    0.00003439    0.00003392
     atom   10 type  2   force =    -0.00002126   -0.00001227    0.00004368
     atom   11 type  2   force =    -0.00006531    0.00000260   -0.00007765
     atom   12 type  1   force =     0.00004655    0.00002687   -0.00001059
     atom   13 type  2   force =     0.00000866   -0.00005377    0.00003392
     atom   14 type  2   force =    -0.00000439   -0.00000253   -0.00000375
     atom   15 type  2   force =    -0.00003041   -0.00005786   -0.00007765
     atom   16 type  2   force =     0.00000874    0.00000505   -0.00008263

     Total force =     0.000288     Total SCF correction =     0.000003


     Computing stress (Cartesian axis) and pressure

          total   stress  (Ry/bohr**3)                   (kbar)     P=        0.14
   0.00000110   0.00000003  -0.00000013            0.16        0.00       -0.02
   0.00000003   0.00000106  -0.00000007            0.00        0.16       -0.01
  -0.00000013  -0.00000007   0.00000069           -0.02       -0.01        0.10


     Writing all to output data dir ./outdir/mgni.save/ :
     XML data file, charge density, pseudopotentials, collected wavefunctions
 
     init_run     :      8.83s CPU      9.59s WALL (       2 calls)
     electrons    :   3649.82s CPU   3663.49s WALL (      30 calls)
     update_pot   :      2.61s CPU      2.61s WALL (      28 calls)
     forces       :     52.60s CPU     52.62s WALL (      30 calls)
     force_dftd3  :      3.62s CPU      3.62s WALL (      30 calls)
     stress       :     97.57s CPU     97.75s WALL (      30 calls)
     stres_dftd3  :      3.60s CPU      3.60s WALL (      30 calls)

     Called by init_run:
     wfcinit      :      6.60s CPU      7.18s WALL (       2 calls)
     potinit      :      0.99s CPU      1.02s WALL (       2 calls)
     hinit0       :      0.38s CPU      0.40s WALL (       2 calls)

     Called by electrons:
     c_bands      :   3207.40s CPU   3219.07s WALL (     433 calls)
     sum_band     :    319.40s CPU    320.15s WALL (     433 calls)
     v_of_rho     :      2.50s CPU      2.56s WALL (     450 calls)
     newd         :     88.99s CPU     89.06s WALL (     450 calls)
     PAW_pot      :     26.12s CPU     26.13s WALL (     478 calls)
     mix_rho      :      4.44s CPU      5.07s WALL (     433 calls)
     energy_dftd3 :      4.38s CPU      4.38s WALL (      30 calls)

     Called by c_bands:
     init_us_2    :     51.58s CPU     51.65s WALL (  137664 calls)
     cegterg      :   3022.91s CPU   3033.18s WALL (   62353 calls)

     Called by *egterg:
     cdiaghg      :    856.76s CPU    899.10s WALL (  229599 calls)
                                      898.51s GPU  (  229599 calls)
     h_psi        :    926.27s CPU    934.61s WALL (  235792 calls)
     s_psi        :    243.29s CPU    244.10s WALL (  235792 calls)
     g_psi        :      5.23s CPU      5.25s WALL (  173151 calls)

     Called by h_psi:
     h_psi:calbec :      3.96s CPU      4.11s WALL (  235792 calls)
     vloc_psi     :    625.51s CPU    632.40s WALL (  235792 calls)
                                      631.84s GPU  (  235792 calls)
     add_vuspsi   :    291.01s CPU    293.23s WALL (  235792 calls)

     General routines
     calbec       :      4.86s CPU      5.04s WALL (  375616 calls)
     fft          :      2.81s CPU      3.76s WALL (    6581 calls)
                                        0.98s GPU  (    6131 calls)
     ffts         :      0.98s CPU      1.01s WALL (     883 calls)
                                        0.03s GPU  (     433 calls)
     fftw         :      7.95s CPU    659.27s WALL ( 1240968 calls)
                                      656.11s GPU  ( 1240968 calls)
     interpolate  :      4.31s CPU      4.34s WALL (     450 calls)
 
 
     PWSCF        :      1h 3m CPU      1h 4m WALL

 
   This run was terminated on:   8:25:57  28May2026            

=------------------------------------------------------------------------------=
   JOB DONE.
=------------------------------------------------------------------------------=
