
     Program PWSCF v.7.5 starts on 28May2026 at  2:20:12 

     This program is part of the open-source Quantum ESPRESSO suite
     for quantum simulation of materials; please cite
         "P. Giannozzi et al., J. Phys.:Condens. Matter 21 395502 (2009);
         "P. Giannozzi et al., J. Phys.:Condens. Matter 29 465901 (2017);
         "P. Giannozzi et al., J. Chem. Phys. 152 154105 (2020);
          URL http://www.quantum-espresso.org", 
     in publications or presentations arising from this work. More details at
     http://www.quantum-espresso.org/quote

     Serial multi-threaded version, running on    1 processor cores
     27874 MiB available memory on the printing compute node when the environment starts
 
     Reading input from inputs/mgni.in

     Current dimensions of program PWSCF are:
     Max number of different atomic species (ntypx) = 10
     Max number of k-points (npk) =  40000
     Max angular momentum in pseudopotentials (lmaxx) =  4
     file Mg.pbe-n-kjpaw_psl.0.3.0.UPF: wavefunction(s)  3S renormalized
     Message from routine setup:
     using ibrav=0 with symmetry is DISCOURAGED, use correct ibrav instead
 
 
     G-vector sticks info
     --------------------
     sticks:   dense  smooth     PW     G-vecs:    dense   smooth      PW
     Sum        4855    2407    673               442799   156511   22647
 
     Using Slab Decomposition
 


     bravais-lattice index     =            0
     lattice parameter (alat)  =      12.0942  a.u.
     unit-cell volume          =    2494.3357 (a.u.)^3
     number of atoms/cell      =           16
     number of atomic types    =            2
     number of electrons       =        64.00
     number of Kohn-Sham states=           38
     kinetic-energy cutoff     =      60.0000  Ry
     charge density cutoff     =     480.0000  Ry
     scf convergence threshold =      1.0E-09
     mixing beta               =       0.3000
     number of iterations used =            8  plain     mixing
     energy convergence thresh.=      1.0E-05
     force convergence thresh. =      1.0E-04
     press convergence thresh. =      5.0E-01
     Exchange-correlation= SLA  PW   PBX  PBC
                           (   1   4   3   4   0   0   0)
     nstep                     =           80


     GPU acceleration is ACTIVE.  1 visible GPUs per MPI rank


     celldm(1)=  12.094247  celldm(2)=   0.000000  celldm(3)=   0.000000
     celldm(4)=   0.000000  celldm(5)=   0.000000  celldm(6)=   0.000000

     crystal axes: (cart. coord. in units of alat)
               a(1) = (   1.000000   0.000000   0.000000 )  
               a(2) = (  -0.500000   0.866025   0.000000 )  
               a(3) = (   0.000000   0.000000   1.628125 )  

     reciprocal axes: (cart. coord. in units 2 pi/alat)
               b(1) = (  1.000000  0.577350 -0.000000 )  
               b(2) = (  0.000000  1.154701  0.000000 )  
               b(3) = (  0.000000 -0.000000  0.614203 )  


     PseudoPot. # 1 for Ni read from file:
     /home/x/Workspace/espresso/pseudo/ni_pbe_v1.4.uspp.F.UPF
     MD5 check sum: 1ee80287db30b12d2bc1f57a5b5d6409
     Pseudo is Ultrasoft + core correction, Zval = 18.0
     Generated by new atomic code, or converted to UPF format
     Using radial grid of  865 points,  6 beta functions with: 
                l(1) =   0
                l(2) =   0
                l(3) =   1
                l(4) =   1
                l(5) =   2
                l(6) =   2
     Q(r) pseudized with 10 coefficients,  rinner =    0.980   0.980   0.980
                                                       0.980   0.980

     PseudoPot. # 2 for Mg read from file:
     /home/x/Workspace/espresso/pseudo/Mg.pbe-n-kjpaw_psl.0.3.0.UPF
     MD5 check sum: 24ecedc7f3e3cbe212e682f4413594e4
     Pseudo is Projector augmented-wave + core cor, Zval =  2.0
     Generated using "atomic" code by A. Dal Corso  v.5.0.99 svn rev. 10869
     Shape of augmentation charge: PSQ
     Using radial grid of 1129 points,  4 beta functions with: 
                l(1) =   0
                l(2) =   0
                l(3) =   1
                l(4) =   1
     Q(r) pseudized with 0 coefficients 


     atomic species   valence    mass     pseudopotential
     Ni               18.00    58.69340     Ni( 1.00)
     Mg                2.00    24.30500     Mg( 1.00)

     Starting magnetic structure 
     atomic species   magnetization
     Ni              0.500
     Mg              0.000

      4 Sym. Ops., with inversion, found ( 2 have fractional translation)



   Cartesian axes

     site n.     atom                  positions (alat units)
         1        Ni     tau(   1) = (   0.0000000   0.2886751   0.2035156  )
         2        Mg     tau(   2) = (   0.2500000   0.1443376   0.6105469  )
         3        Mg     tau(   3) = (   0.0000000   0.2886751   1.0175781  )
         4        Mg     tau(   4) = (   0.2500000   0.1443376   1.4246094  )
         5        Mg     tau(   5) = (  -0.2500000   0.7216878   0.2035156  )
         6        Mg     tau(   6) = (   0.0000000   0.5773503   0.6105469  )
         7        Mg     tau(   7) = (  -0.2500000   0.7216878   1.0175781  )
         8        Mg     tau(   8) = (   0.0000000   0.5773503   1.4246094  )
         9        Mg     tau(   9) = (   0.5000000   0.2886751   0.2035156  )
        10        Mg     tau(  10) = (   0.7500000   0.1443376   0.6105469  )
        11        Mg     tau(  11) = (   0.5000000   0.2886751   1.0175781  )
        12        Ni     tau(  12) = (   0.7500000   0.1443376   1.4246094  )
        13        Mg     tau(  13) = (   0.2500000   0.7216878   0.2035156  )
        14        Mg     tau(  14) = (   0.5000000   0.5773503   0.6105469  )
        15        Mg     tau(  15) = (   0.2500000   0.7216878   1.0175781  )
        16        Mg     tau(  16) = (   0.5000000   0.5773503   1.4246094  )

     --------------------------------------------
     DFT-D3 Dispersion Correction (3-body terms):
     --------------------------------------------
       Reference C6 values for interpolation: 

         atom   Coordination number   C6
         Mg         0.000          1366.75
         Mg         0.963           902.54
         Mg         1.950           351.12
         Ni         0.000          1149.49
         Ni         1.794           356.66
         Ni         6.546           257.56
         Ni         6.292           283.75

       Values used:

         atom   Coordination number  R0_AB[au]  C6      C8
         Ni         2.955            3.162    356.66  29885.72
         Mg         7.714            3.292    351.12  31436.69
         Mg         7.711            3.292    351.12  31436.69
         Mg         6.904            3.292    351.12  31436.69
         Mg         7.282            3.292    351.12  31436.69
         Mg         7.714            3.292    351.12  31436.69
         Mg         8.091            3.292    351.12  31436.69
         Mg         6.904            3.292    351.12  31436.69
         Mg         6.904            3.292    351.12  31436.69
         Mg         7.711            3.292    351.12  31436.69
         Mg         7.714            3.292    351.12  31436.69
         Ni         2.955            3.162    356.66  29885.72
         Mg         6.904            3.292    351.12  31436.69
         Mg         8.091            3.292    351.12  31436.69
         Mg         7.714            3.292    351.12  31436.69
         Mg         7.282            3.292    351.12  31436.69

         Molecular C6 ( Ry / a.u.^6 ) =     89906.64


     number of k points=    47  Marzari-Vanderbilt smearing, width (Ry)=  0.0100
                       cart. coord. in units 2pi/alat
        k(    1) = (   0.0000000   0.0000000   0.0000000), wk =   0.0069444
        k(    2) = (   0.0000000   0.0000000   0.1535509), wk =   0.0138889
        k(    3) = (   0.0000000   0.0000000  -0.3071017), wk =   0.0069444
        k(    4) = (   0.0000000   0.1924501   0.0000000), wk =   0.0277778
        k(    5) = (   0.0000000   0.1924501   0.1535509), wk =   0.0277778
        k(    6) = (   0.0000000   0.1924501  -0.3071017), wk =   0.0277778
        k(    7) = (   0.0000000   0.3849002   0.0000000), wk =   0.0277778
        k(    8) = (   0.0000000   0.3849002   0.1535509), wk =   0.0277778
        k(    9) = (   0.0000000   0.3849002  -0.3071017), wk =   0.0277778
        k(   10) = (   0.0000000  -0.5773503   0.0000000), wk =   0.0138889
        k(   11) = (   0.0000000  -0.5773503   0.1535509), wk =   0.0277778
        k(   12) = (   0.0000000  -0.5773503  -0.3071017), wk =   0.0138889
        k(   13) = (   0.1666667   0.2886751   0.0000000), wk =   0.0277778
        k(   14) = (   0.1666667   0.2886751   0.1535509), wk =   0.0277778
        k(   15) = (   0.1666667   0.2886751  -0.3071017), wk =   0.0277778
        k(   16) = (   0.1666667   0.4811252   0.0000000), wk =   0.0277778
        k(   17) = (   0.1666667   0.4811252   0.1535509), wk =   0.0277778
        k(   18) = (   0.1666667   0.4811252  -0.3071017), wk =   0.0277778
        k(   19) = (   0.3333333   0.5773503   0.0000000), wk =   0.0138889
        k(   20) = (   0.3333333   0.5773503   0.1535509), wk =   0.0277778
        k(   21) = (   0.3333333   0.5773503  -0.3071017), wk =   0.0138889
        k(   22) = (   0.1666667   0.0962250   0.0000000), wk =   0.0138889
        k(   23) = (  -0.1666667   0.0962250   0.1535509), wk =   0.0277778
        k(   24) = (   0.1666667   0.0962250   0.1535509), wk =   0.0138889
        k(   25) = (  -0.1666667  -0.0962250   0.1535509), wk =   0.0138889
        k(   26) = (   0.1666667   0.0962250  -0.3071017), wk =   0.0138889
        k(   27) = (   0.3333333   0.1924501   0.0000000), wk =   0.0138889
        k(   28) = (  -0.3333333   0.1924501   0.1535509), wk =   0.0277778
        k(   29) = (   0.3333333   0.1924501   0.1535509), wk =   0.0138889
        k(   30) = (  -0.3333333  -0.1924501   0.1535509), wk =   0.0138889
        k(   31) = (   0.3333333   0.1924501  -0.3071017), wk =   0.0138889
        k(   32) = (  -0.5000000  -0.2886751   0.0000000), wk =   0.0069444
        k(   33) = (  -0.5000000  -0.2886751   0.1535509), wk =   0.0138889
        k(   34) = (  -0.5000000  -0.2886751  -0.3071017), wk =   0.0069444
        k(   35) = (  -0.1666667   0.2886751   0.0000000), wk =   0.0138889
        k(   36) = (  -0.1666667   0.2886751   0.1535509), wk =   0.0277778
        k(   37) = (  -0.3333333  -0.0000000   0.1535509), wk =   0.0277778
        k(   38) = (  -0.1666667   0.2886751  -0.3071017), wk =   0.0138889
        k(   39) = (  -0.3333333   0.3849002   0.0000000), wk =   0.0277778
        k(   40) = (   0.5000000   0.0962250   0.0000000), wk =   0.0277778
        k(   41) = (  -0.3333333   0.3849002   0.1535509), wk =   0.0277778
        k(   42) = (   0.5000000   0.0962250   0.1535509), wk =   0.0277778
        k(   43) = (  -0.5000000  -0.0962250   0.1535509), wk =   0.0277778
        k(   44) = (   0.3333333  -0.3849002   0.1535509), wk =   0.0277778
        k(   45) = (   0.5000000  -0.0962250  -0.1535509), wk =   0.0277778
        k(   46) = (  -0.3333333   0.3849002  -0.3071017), wk =   0.0277778
        k(   47) = (   0.5000000   0.0962250  -0.3071017), wk =   0.0277778

     Dense  grid:   442799 G-vectors     FFT dimensions: (  90,  90, 144)

     Smooth grid:   156511 G-vectors     FFT dimensions: (  60,  60, 100)

     Estimated max dynamical RAM per process >       3.05 GB
     Generating pointlists ...
     new r_m :   0.2058 (alat units)  2.4895 (a.u.) for type    1
     new r_m :   0.2058 (alat units)  2.4895 (a.u.) for type    2

     Initial potential from superposition of free atoms

     starting charge      59.9871, renormalised to      64.0000
     Starting wfcs are   82 randomized atomic wfcs

     total cpu time spent up to now is        4.8 secs

     Self-consistent Calculation

     iteration #  1     ecut=    60.00 Ry     beta= 0.30
     Davidson diagonalization with overlap
     ethr =  1.00E-02,  avg # of iterations =  3.1

     total cpu time spent up to now is       10.9 secs

     total energy              =   -1119.31382623 Ry
     estimated scf accuracy    <     103.46872681 Ry

     total magnetization       =     2.75 Bohr mag/cell
     absolute magnetization    =     3.24 Bohr mag/cell

     iteration #  2     ecut=    60.00 Ry     beta= 0.30
     Davidson diagonalization with overlap
     ethr =  1.00E-02,  avg # of iterations =  4.1

     total cpu time spent up to now is       19.6 secs

     total energy              =   -1154.16997794 Ry
     estimated scf accuracy    <      95.25497627 Ry

     total magnetization       =     0.96 Bohr mag/cell
     absolute magnetization    =     1.19 Bohr mag/cell

     iteration #  3     ecut=    60.00 Ry     beta= 0.30
     Davidson diagonalization with overlap
     ethr =  1.00E-02,  avg # of iterations =  4.7

     total cpu time spent up to now is       27.7 secs

     total energy              =   -1157.13653651 Ry
     estimated scf accuracy    <      23.04449672 Ry

     total magnetization       =     0.75 Bohr mag/cell
     absolute magnetization    =     0.97 Bohr mag/cell

     iteration #  4     ecut=    60.00 Ry     beta= 0.30
     Davidson diagonalization with overlap
     ethr =  1.00E-02,  avg # of iterations =  2.1

     total cpu time spent up to now is       32.6 secs

     total energy              =   -1153.91919766 Ry
     estimated scf accuracy    <      12.38356780 Ry

     total magnetization       =     0.50 Bohr mag/cell
     absolute magnetization    =     0.84 Bohr mag/cell

     iteration #  5     ecut=    60.00 Ry     beta= 0.30
     Davidson diagonalization with overlap
     ethr =  1.00E-02,  avg # of iterations =  7.4

     total cpu time spent up to now is       42.5 secs

     total energy              =   -1142.07700287 Ry
     estimated scf accuracy    <     118.27599427 Ry

     total magnetization       =     0.00 Bohr mag/cell
     absolute magnetization    =     0.83 Bohr mag/cell

     iteration #  6     ecut=    60.00 Ry     beta= 0.30
     Davidson diagonalization with overlap
     ethr =  1.00E-02,  avg # of iterations =  5.1

     total cpu time spent up to now is       50.5 secs

     total energy              =   -1159.68443735 Ry
     estimated scf accuracy    <      14.81039746 Ry

     total magnetization       =     0.01 Bohr mag/cell
     absolute magnetization    =     0.17 Bohr mag/cell

     iteration #  7     ecut=    60.00 Ry     beta= 0.30
     Davidson diagonalization with overlap
     ethr =  1.00E-02,  avg # of iterations =  1.0

     total cpu time spent up to now is       54.4 secs

     total energy              =   -1157.98084471 Ry
     estimated scf accuracy    <      12.18516473 Ry

     total magnetization       =     0.02 Bohr mag/cell
     absolute magnetization    =     0.15 Bohr mag/cell

     iteration #  8     ecut=    60.00 Ry     beta= 0.30
     Davidson diagonalization with overlap
     ethr =  1.00E-02,  avg # of iterations =  1.0

     total cpu time spent up to now is       58.3 secs

     total energy              =   -1157.71105187 Ry
     estimated scf accuracy    <       5.86461390 Ry

     total magnetization       =    -0.01 Bohr mag/cell
     absolute magnetization    =     0.07 Bohr mag/cell

     iteration #  9     ecut=    60.00 Ry     beta= 0.30
     Davidson diagonalization with overlap
     ethr =  9.16E-03,  avg # of iterations =  1.0

     total cpu time spent up to now is       62.1 secs

     total energy              =   -1157.02257025 Ry
     estimated scf accuracy    <       3.58175555 Ry

     total magnetization       =    -0.01 Bohr mag/cell
     absolute magnetization    =     0.05 Bohr mag/cell

     iteration # 10     ecut=    60.00 Ry     beta= 0.30
     Davidson diagonalization with overlap
     ethr =  5.60E-03,  avg # of iterations =  2.0

     total cpu time spent up to now is       66.7 secs

     total energy              =   -1157.28723786 Ry
     estimated scf accuracy    <       0.54948824 Ry

     total magnetization       =    -0.08 Bohr mag/cell
     absolute magnetization    =     0.13 Bohr mag/cell

     iteration # 11     ecut=    60.00 Ry     beta= 0.30
     Davidson diagonalization with overlap
     ethr =  8.59E-04,  avg # of iterations =  2.0

     total cpu time spent up to now is       71.6 secs

     total energy              =   -1157.43037453 Ry
     estimated scf accuracy    <       0.37056997 Ry

     total magnetization       =    -0.03 Bohr mag/cell
     absolute magnetization    =     0.08 Bohr mag/cell

     iteration # 12     ecut=    60.00 Ry     beta= 0.30
     Davidson diagonalization with overlap
     ethr =  5.79E-04,  avg # of iterations =  1.1

     total cpu time spent up to now is       75.7 secs

     total energy              =   -1157.41164221 Ry
     estimated scf accuracy    <       0.68428493 Ry

     total magnetization       =    -0.03 Bohr mag/cell
     absolute magnetization    =     0.07 Bohr mag/cell

     iteration # 13     ecut=    60.00 Ry     beta= 0.30
     Davidson diagonalization with overlap
     ethr =  5.79E-04,  avg # of iterations =  1.1

     total cpu time spent up to now is       80.0 secs

     total energy              =   -1157.35502066 Ry
     estimated scf accuracy    <       0.44402164 Ry

     total magnetization       =    -0.03 Bohr mag/cell
     absolute magnetization    =     0.07 Bohr mag/cell

     iteration # 14     ecut=    60.00 Ry     beta= 0.30
     Davidson diagonalization with overlap
     ethr =  5.79E-04,  avg # of iterations =  1.9

     total cpu time spent up to now is       84.9 secs

     total energy              =   -1157.38330845 Ry
     estimated scf accuracy    <       0.02686085 Ry

     total magnetization       =    -0.03 Bohr mag/cell
     absolute magnetization    =     0.07 Bohr mag/cell

     iteration # 15     ecut=    60.00 Ry     beta= 0.30
     Davidson diagonalization with overlap
     ethr =  4.20E-05,  avg # of iterations =  8.1

     total cpu time spent up to now is      101.6 secs

     total energy              =   -1157.38852971 Ry
     estimated scf accuracy    <       0.02155707 Ry

     total magnetization       =    -0.02 Bohr mag/cell
     absolute magnetization    =     0.05 Bohr mag/cell

     iteration # 16     ecut=    60.00 Ry     beta= 0.30
     Davidson diagonalization with overlap
     ethr =  3.37E-05,  avg # of iterations =  2.2

     total cpu time spent up to now is      107.8 secs

     total energy              =   -1157.38984102 Ry
     estimated scf accuracy    <       0.00092902 Ry

     total magnetization       =    -0.03 Bohr mag/cell
     absolute magnetization    =     0.06 Bohr mag/cell

     iteration # 17     ecut=    60.00 Ry     beta= 0.30
     Davidson diagonalization with overlap
     c_bands:  1 eigenvalues not converged
     c_bands:  1 eigenvalues not converged
     c_bands:  1 eigenvalues not converged
     c_bands:  1 eigenvalues not converged
     c_bands:  1 eigenvalues not converged
     c_bands:  1 eigenvalues not converged
     ethr =  1.45E-06,  avg # of iterations = 10.5

     total cpu time spent up to now is      127.7 secs

     total energy              =   -1157.39037949 Ry
     estimated scf accuracy    <       0.00533551 Ry

     total magnetization       =    -0.02 Bohr mag/cell
     absolute magnetization    =     0.04 Bohr mag/cell

     iteration # 18     ecut=    60.00 Ry     beta= 0.30
     Davidson diagonalization with overlap
     ethr =  1.45E-06,  avg # of iterations =  4.9

     total cpu time spent up to now is      137.0 secs

     total energy              =   -1157.39082591 Ry
     estimated scf accuracy    <       0.00400116 Ry

     total magnetization       =    -0.02 Bohr mag/cell
     absolute magnetization    =     0.04 Bohr mag/cell

     iteration # 19     ecut=    60.00 Ry     beta= 0.30
     Davidson diagonalization with overlap
     ethr =  1.45E-06,  avg # of iterations =  2.5

     total cpu time spent up to now is      142.6 secs

     total energy              =   -1157.39107978 Ry
     estimated scf accuracy    <       0.00016906 Ry

     total magnetization       =    -0.01 Bohr mag/cell
     absolute magnetization    =     0.03 Bohr mag/cell

     iteration # 20     ecut=    60.00 Ry     beta= 0.30
     Davidson diagonalization with overlap
     ethr =  2.64E-07,  avg # of iterations =  4.6

     total cpu time spent up to now is      150.4 secs

     total energy              =   -1157.39108737 Ry
     estimated scf accuracy    <       0.00050948 Ry

     total magnetization       =    -0.01 Bohr mag/cell
     absolute magnetization    =     0.03 Bohr mag/cell

     iteration # 21     ecut=    60.00 Ry     beta= 0.30
     Davidson diagonalization with overlap
     ethr =  2.64E-07,  avg # of iterations =  1.4

     total cpu time spent up to now is      155.3 secs

     total energy              =   -1157.39109606 Ry
     estimated scf accuracy    <       0.00006574 Ry

     total magnetization       =    -0.01 Bohr mag/cell
     absolute magnetization    =     0.02 Bohr mag/cell

     iteration # 22     ecut=    60.00 Ry     beta= 0.30
     Davidson diagonalization with overlap
     ethr =  1.03E-07,  avg # of iterations =  3.3

     total cpu time spent up to now is      162.6 secs

     total energy              =   -1157.39110501 Ry
     estimated scf accuracy    <       0.00000436 Ry

     total magnetization       =    -0.01 Bohr mag/cell
     absolute magnetization    =     0.02 Bohr mag/cell

     iteration # 23     ecut=    60.00 Ry     beta= 0.30
     Davidson diagonalization with overlap
     c_bands:  1 eigenvalues not converged
     ethr =  6.81E-09,  avg # of iterations = 14.0

     total cpu time spent up to now is      183.2 secs

     total energy              =   -1157.39111942 Ry
     estimated scf accuracy    <       0.00000192 Ry

     total magnetization       =    -0.01 Bohr mag/cell
     absolute magnetization    =     0.02 Bohr mag/cell

     iteration # 24     ecut=    60.00 Ry     beta= 0.30
     Davidson diagonalization with overlap
     ethr =  3.00E-09,  avg # of iterations =  3.7

     total cpu time spent up to now is      192.6 secs

     total energy              =   -1157.39111993 Ry
     estimated scf accuracy    <       0.00000139 Ry

     total magnetization       =    -0.01 Bohr mag/cell
     absolute magnetization    =     0.02 Bohr mag/cell

     iteration # 25     ecut=    60.00 Ry     beta= 0.30
     Davidson diagonalization with overlap
     ethr =  2.18E-09,  avg # of iterations =  4.8

     total cpu time spent up to now is      201.0 secs

     total energy              =   -1157.39112203 Ry
     estimated scf accuracy    <       0.00003534 Ry

     total magnetization       =    -0.00 Bohr mag/cell
     absolute magnetization    =     0.01 Bohr mag/cell

     iteration # 26     ecut=    60.00 Ry     beta= 0.30
     Davidson diagonalization with overlap
     ethr =  2.18E-09,  avg # of iterations =  3.4

     total cpu time spent up to now is      208.7 secs

     total energy              =   -1157.39111938 Ry
     estimated scf accuracy    <       0.00004144 Ry

     total magnetization       =    -0.00 Bohr mag/cell
     absolute magnetization    =     0.01 Bohr mag/cell

     iteration # 27     ecut=    60.00 Ry     beta= 0.30
     Davidson diagonalization with overlap
     ethr =  2.18E-09,  avg # of iterations =  3.9

     total cpu time spent up to now is      215.3 secs

     total energy              =   -1157.39112048 Ry
     estimated scf accuracy    <       0.00000304 Ry

     total magnetization       =    -0.00 Bohr mag/cell
     absolute magnetization    =     0.01 Bohr mag/cell

     iteration # 28     ecut=    60.00 Ry     beta= 0.30
     Davidson diagonalization with overlap
     ethr =  2.18E-09,  avg # of iterations =  1.4

     total cpu time spent up to now is      220.3 secs

     total energy              =   -1157.39112044 Ry
     estimated scf accuracy    <       0.00000265 Ry

     total magnetization       =    -0.00 Bohr mag/cell
     absolute magnetization    =     0.00 Bohr mag/cell

     iteration # 29     ecut=    60.00 Ry     beta= 0.30
     Davidson diagonalization with overlap
     ethr =  2.18E-09,  avg # of iterations =  1.4

     total cpu time spent up to now is      224.9 secs

     total energy              =   -1157.39112039 Ry
     estimated scf accuracy    <       0.00000124 Ry

     total magnetization       =    -0.00 Bohr mag/cell
     absolute magnetization    =     0.00 Bohr mag/cell

     iteration # 30     ecut=    60.00 Ry     beta= 0.30
     Davidson diagonalization with overlap
     ethr =  1.94E-09,  avg # of iterations =  1.4

     total cpu time spent up to now is      229.2 secs

     total energy              =   -1157.39112045 Ry
     estimated scf accuracy    <       0.00000006 Ry

     total magnetization       =    -0.00 Bohr mag/cell
     absolute magnetization    =     0.00 Bohr mag/cell

     iteration # 31     ecut=    60.00 Ry     beta= 0.30
     Davidson diagonalization with overlap
     c_bands:  1 eigenvalues not converged
     ethr =  9.20E-11,  avg # of iterations = 11.9

     total cpu time spent up to now is      244.5 secs

     total energy              =   -1157.39112059 Ry
     estimated scf accuracy    <          8.5E-09 Ry

     total magnetization       =    -0.00 Bohr mag/cell
     absolute magnetization    =     0.00 Bohr mag/cell

     iteration # 32     ecut=    60.00 Ry     beta= 0.30
     Davidson diagonalization with overlap
     ethr =  1.32E-11,  avg # of iterations =  5.4
 
     Magnetic moment per site  (integrated on atomic sphere of radius R)
     atom   1 (R=0.206)  charge= 17.4664  magn= -0.0001
     atom   2 (R=0.206)  charge=  1.0506  magn=  0.0000
     atom   3 (R=0.206)  charge=  1.0539  magn=  0.0000
     atom   4 (R=0.206)  charge=  1.0050  magn=  0.0000
     atom   5 (R=0.206)  charge=  1.0266  magn=  0.0000
     atom   6 (R=0.206)  charge=  1.0506  magn=  0.0000
     atom   7 (R=0.206)  charge=  1.0749  magn=  0.0000
     atom   8 (R=0.206)  charge=  1.0050  magn=  0.0000
     atom   9 (R=0.206)  charge=  1.0050  magn=  0.0000
     atom  10 (R=0.206)  charge=  1.0539  magn=  0.0000
     atom  11 (R=0.206)  charge=  1.0506  magn=  0.0000
     atom  12 (R=0.206)  charge= 17.4664  magn= -0.0001
     atom  13 (R=0.206)  charge=  1.0050  magn=  0.0000
     atom  14 (R=0.206)  charge=  1.0749  magn=  0.0000
     atom  15 (R=0.206)  charge=  1.0506  magn=  0.0000
     atom  16 (R=0.206)  charge=  1.0266  magn=  0.0000

     total cpu time spent up to now is      254.3 secs

     End of self-consistent calculation

 ------ SPIN UP ------------


          k = 0.0000 0.0000 0.0000 ( 19579 PWs)   bands (ev):

   -98.3364 -98.3363 -58.7679 -58.7678 -58.7652 -58.7650 -58.7413 -58.7388
    -2.8322  -1.4123  -1.3944   1.7288   1.7766   1.7808   1.9216   1.9769
     1.9993   2.3861   2.4381   2.5862   2.6480   2.6669   2.7472   2.8201
     2.8259   2.9343   2.9364   3.0050   3.0164   3.2927   3.3088   3.3583
     3.3950   3.5920   3.7301   3.9419   4.0276   4.1674

          k = 0.0000 0.0000 0.1536 ( 19567 PWs)   bands (ev):

   -98.3364 -98.3363 -58.7679 -58.7678 -58.7652 -58.7650 -58.7413 -58.7388
    -2.7549  -1.9913  -0.6428   1.3158   1.8044   1.8397   1.8517   2.0013
     2.0045   2.0501   2.3988   2.4173   2.4704   2.5951   2.6593   2.7133
     2.8790   3.0005   3.0716   3.1152   3.1448   3.1729   3.1807   3.3211
     3.4290   3.6113   4.2342   4.3251   4.3905   4.5223

          k = 0.0000 0.0000-0.3071 ( 19464 PWs)   bands (ev):

   -98.3364 -98.3363 -58.7679 -58.7678 -58.7652 -58.7650 -58.7413 -58.7388
    -2.6119  -2.3054   0.2393   0.3083   1.9472   1.9784   2.0071   2.0085
     2.0693   2.0722   2.1613   2.1653   2.2577   2.4859   2.6069   2.6230
     2.8628   2.9237   3.0859   3.0928   3.1586   3.2086   3.2154   3.3934
     3.4079   3.6173   4.8337   4.9106   5.0213   5.1389

          k = 0.0000 0.1925 0.0000 ( 19574 PWs)   bands (ev):

   -98.3364 -98.3363 -58.7679 -58.7678 -58.7652 -58.7650 -58.7413 -58.7388
    -2.6955  -1.2786  -1.2606   0.5041   1.2615   1.2714   1.8008   1.8147
     2.2766   2.3630   2.3915   2.4260   2.4761   2.6136   2.8450   2.8680
     2.9616   2.9859   3.0134   3.1053   3.1618   3.2166   3.2569   3.3683
     3.4378   3.6917   3.9554   4.5536   4.5809   4.6859

          k = 0.0000 0.1925 0.1536 ( 19560 PWs)   bands (ev):

   -98.3364 -98.3363 -58.7679 -58.7678 -58.7652 -58.7650 -58.7413 -58.7388
    -2.6184  -1.8561  -0.5109   0.5755   1.2051   1.3392   1.3882   1.4859
     1.9642   2.0229   2.4406   2.6284   2.6486   2.7753   2.8056   2.8741
     3.0083   3.0337   3.1053   3.1333   3.1621   3.2439   3.2946   3.5462
     3.6332   3.9116   4.2569   4.3218   4.5208   4.8013

          k = 0.0000 0.1925-0.3071 ( 19514 PWs)   bands (ev):

   -98.3364 -98.3363 -58.7679 -58.7678 -58.7652 -58.7650 -58.7413 -58.7388
    -2.4759  -2.1692   0.3645   0.4303   0.7203   0.9749   1.4808   1.4914
     1.7240   1.7650   2.6760   2.7269   2.7761   2.8103   2.8474   2.8597
     2.9171   3.0162   3.0712   3.1298   3.2172   3.3360   3.4970   3.5600
     3.7984   3.9093   4.3097   4.5285   4.6588   4.6825

          k = 0.0000 0.3849 0.0000 ( 19580 PWs)   bands (ev):

   -98.3364 -98.3363 -58.7679 -58.7678 -58.7652 -58.7650 -58.7413 -58.7388
    -2.2875  -0.8863  -0.8684  -0.6542   0.6685   0.6893   0.9378   0.9425
     2.0102   2.0248   2.3057   2.3425   2.5962   2.7183   2.8474   2.9302
     2.9863   3.0859   3.1563   3.1649   3.2810   3.3521   3.4037   3.7691
     4.1216   4.2009   4.6991   4.9116   5.4965   5.5572

          k = 0.0000 0.3849 0.1536 ( 19563 PWs)   bands (ev):

   -98.3364 -98.3363 -58.7679 -58.7678 -58.7652 -58.7650 -58.7413 -58.7388
    -2.2109  -1.4545  -0.5933  -0.1192   0.1408   0.9586   0.9850   1.4366
     1.6191   1.6788   1.8549   2.6466   2.6567   2.7671   2.8657   2.9194
     3.0011   3.0190   3.1594   3.2244   3.2539   3.4390   3.4828   3.7398
     4.1907   4.1926   4.7547   5.1333   5.1831   5.2774

          k = 0.0000 0.3849-0.3071 ( 19586 PWs)   bands (ev):

   -98.3364 -98.3363 -58.7679 -58.7678 -58.7652 -58.7650 -58.7413 -58.7388
    -2.0696  -1.7640  -0.4630  -0.1534   0.7513   0.8033   1.1013   1.1116
     1.3917   1.4076   2.2237   2.2845   2.7964   2.8085   2.8592   2.9082
     2.9706   2.9838   3.1858   3.2510   3.2798   3.3414   3.8913   3.9120
     4.0177   4.0358   4.7383   4.7659   4.9614   4.9788

          k = 0.0000-0.5774 0.0000 ( 19568 PWs)   bands (ev):

   -98.3364 -98.3363 -58.7679 -58.7678 -58.7652 -58.7650 -58.7413 -58.7388
    -1.6710  -1.5478  -0.2996  -0.2826  -0.1313  -0.1039   0.7880   0.7892
     1.8922   1.9025   2.2435   2.2639   2.6829   2.7496   2.8404   2.9438
     2.9795   3.0878   3.1558   3.1719   3.3703   3.3807   3.8221   3.9436
     3.9855   4.4675   5.2912   5.3306   5.5349   5.5598

          k = 0.0000-0.5774 0.1536 ( 19582 PWs)   bands (ev):

   -98.3364 -98.3363 -58.7679 -58.7678 -58.7652 -58.7650 -58.7413 -58.7388
    -1.5927  -1.4760  -0.8671  -0.6861   0.4466   0.5898   0.8543   0.8922
     1.5272   1.5505   2.2641   2.4189   2.6229   2.6506   2.8462   2.8911
     2.9820   3.0272   3.1602   3.2266   3.3199   3.3472   3.4477   3.5235
     4.8454   4.8525   5.1822   5.4052   5.5688   5.6282

          k = 0.0000-0.5774-0.3071 ( 19588 PWs)   bands (ev):

   -98.3364 -98.3363 -58.7679 -58.7678 -58.7652 -58.7650 -58.7413 -58.7388
    -1.4382  -1.3556  -1.1873  -0.9752   0.9452   0.9689   1.2121   1.2458
     1.2960   1.3918   1.5303   1.6303   2.7814   2.7969   2.8694   2.8960
     2.9854   3.0077   3.1854   3.2332   3.2606   3.2990   3.9015   3.9090
     4.1088   4.1536   5.6001   5.6162   5.8673   5.8736

          k = 0.1667 0.2887 0.0000 ( 19567 PWs)   bands (ev):

   -98.3364 -98.3363 -58.7679 -58.7678 -58.7652 -58.7650 -58.7413 -58.7388
    -2.4229  -1.0137  -0.9939  -0.0846   0.0727   1.2191   1.2331   1.4307
     1.4863   2.1700   2.2715   2.5729   2.7054   2.7828   2.8621   2.9455
     2.9577   2.9930   3.0786   3.1772   3.2312   3.3209   3.6310   3.7170
     3.7978   4.3711   4.4096   4.5033   4.8717   5.1807

          k = 0.1667 0.2887 0.1536 ( 19568 PWs)   bands (ev):

   -98.3364 -98.3363 -58.7679 -58.7678 -58.7652 -58.7650 -58.7413 -58.7388
    -2.3462  -1.5870  -0.2496  -0.0058   0.1357   0.6847   0.9059   1.7037
     1.8907   2.0882   2.2616   2.3356   2.7059   2.8151   2.8492   2.9201
     2.9721   3.0515   3.0788   3.1470   3.2010   3.2908   3.4947   3.6270
     4.0107   4.3281   4.6662   4.7291   4.8079   5.1193

          k = 0.1667 0.2887-0.3071 ( 19594 PWs)   bands (ev):

   -98.3364 -98.3363 -58.7679 -58.7678 -58.7652 -58.7650 -58.7413 -58.7388
    -2.2047  -1.8977   0.1510   0.2242   0.3646   0.5870   0.6696   0.7445
     2.3197   2.3646   2.4804   2.4978   2.5880   2.7360   2.7819   2.8809
     2.9317   2.9871   3.0743   3.1740   3.2850   3.3708   3.4475   3.4867
     3.6467   3.7346   4.9644   5.1532   5.2563   5.4387

          k = 0.1667 0.4811 0.0000 ( 19591 PWs)   bands (ev):

   -98.3364 -98.3363 -58.7679 -58.7678 -58.7652 -58.7650 -58.7413 -58.7388
    -1.8833  -1.0746  -0.4981  -0.4647  -0.2530   0.3146   0.3434   1.0915
     1.1249   2.0112   2.6647   2.7277   2.7740   2.8440   2.8815   2.9634
     2.9810   3.0448   3.1719   3.2321   3.4984   3.7205   3.8441   3.9098
     4.0328   4.3459   4.6222   4.9862   5.1344   5.3327

          k = 0.1667 0.4811 0.1536 ( 19585 PWs)   bands (ev):

   -98.3364 -98.3363 -58.7679 -58.7678 -58.7652 -58.7650 -58.7413 -58.7388
    -1.8070  -1.0829  -0.9679  -0.2921  -0.1383   0.2690   0.5517   1.0477
     1.7959   2.0633   2.1500   2.6122   2.6301   2.8073   2.8581   2.9724
     2.9884   3.0496   3.1399   3.1831   3.2752   3.4660   3.5414   3.8427
     4.1196   4.2892   4.8194   5.1237   5.4184   5.6321

          k = 0.1667 0.4811-0.3071 ( 19588 PWs)   bands (ev):

   -98.3364 -98.3363 -58.7679 -58.7678 -58.7652 -58.7650 -58.7413 -58.7388
    -1.6665  -1.3663  -0.8596  -0.5495  -0.0614   0.2686   1.1497   1.1726
     1.8684   1.9135   2.1907   2.3327   2.5430   2.6456   2.8428   2.8887
     2.9675   2.9807   3.1548   3.2104   3.2536   3.3514   3.4624   3.5295
     3.9063   4.4343   5.0613   5.2695   5.8166   5.9803

          k = 0.3333 0.5774 0.0000 ( 19563 PWs)   bands (ev):

   -98.3364 -98.3363 -58.7679 -58.7678 -58.7652 -58.7650 -58.7413 -58.7388
    -1.2806  -1.2425  -1.0950   0.0766   0.0897   0.1308   0.1507   0.3557
     0.3949   2.6453   2.7335   2.7733   2.8310   2.8719   2.9494   2.9775
     3.0122   3.1075   3.2104   3.6401   3.6695   3.7372   4.1342   4.1968
     4.2541   4.3049   4.5048   4.6903   4.7392   4.9723

          k = 0.3333 0.5774 0.1536 ( 19617 PWs)   bands (ev):

   -98.3364 -98.3363 -58.7679 -58.7678 -58.7652 -58.7650 -58.7413 -58.7388
    -1.2019  -1.1669  -1.0289  -0.4894  -0.4271  -0.1898   0.8131   0.8696
     1.1076   2.4903   2.5393   2.6032   2.7761   2.8653   2.8977   2.9520
     2.9667   3.0884   3.2053   3.3650   3.4376   3.5156   3.7134   3.7768
     3.8458   4.5108   4.5326   4.6409   5.4627   5.5847

          k = 0.3333 0.5774-0.3071 ( 19590 PWs)   bands (ev):

   -98.3364 -98.3363 -58.7679 -58.7678 -58.7652 -58.7650 -58.7413 -58.7388
    -1.0422  -1.0241  -0.9307  -0.8146  -0.7291  -0.4619   1.6128   1.6710
     1.7330   1.7351   1.8918   2.0805   2.8012   2.8206   2.8721   2.9492
     2.9513   3.0144   3.1656   3.2259   3.2591   3.3699   3.7359   3.7724
     3.8888   4.3912   4.4096   4.4237   6.5749   6.6954

          k = 0.1667 0.0962 0.0000 ( 19574 PWs)   bands (ev):

   -98.3364 -98.3363 -58.7679 -58.7678 -58.7652 -58.7650 -58.7413 -58.7388
    -2.6955  -1.2787  -1.2602   0.4975   1.2341   1.3122   1.7761   1.8293
     2.2745   2.3428   2.4155   2.4475   2.5042   2.7131   2.7434   2.7564
     2.9064   2.9890   3.0624   3.0681   3.1379   3.2679   3.2810   3.3588
     3.5926   3.6997   3.9430   4.4081   4.4610   4.6925

          k =-0.1667 0.0962 0.1536 ( 19560 PWs)   bands (ev):

   -98.3364 -98.3363 -58.7679 -58.7678 -58.7652 -58.7650 -58.7413 -58.7388
    -2.6184  -1.8559  -0.5125   0.5792   1.2140   1.3329   1.4125   1.4486
     1.9904   2.0215   2.4195   2.5962   2.6193   2.8334   2.8526   2.8911
     2.9454   3.0249   3.0557   3.1570   3.1818   3.2827   3.3583   3.4821
     3.5792   3.9169   4.2957   4.3373   4.4506   4.8608

          k = 0.1667 0.0962 0.1536 ( 19560 PWs)   bands (ev):

   -98.3364 -98.3363 -58.7679 -58.7678 -58.7652 -58.7650 -58.7413 -58.7388
    -2.6184  -1.8560  -0.5103   0.5695   1.2344   1.3353   1.3658   1.4429
     2.0446   2.0606   2.4256   2.5198   2.6855   2.7558   2.8113   2.9199
     2.9207   3.0665   3.0899   3.1280   3.2521   3.2689   3.3286   3.4257
     3.7338   3.8690   4.0507   4.4776   4.5526   4.8475

          k =-0.1667-0.0962 0.1536 ( 19560 PWs)   bands (ev):

   -98.3364 -98.3363 -58.7679 -58.7678 -58.7652 -58.7650 -58.7413 -58.7388
    -2.6183  -1.8557  -0.5127   0.5733   1.1778   1.3780   1.3940   1.4907
     1.9713   2.0085   2.4053   2.6350   2.7097   2.7767   2.8246   2.8993
     2.9344   2.9486   3.1193   3.1290   3.1722   3.2595   3.2740   3.4834
     3.8186   3.9426   4.0929   4.4373   4.4742   4.8333

          k = 0.1667 0.0962-0.3071 ( 19514 PWs)   bands (ev):

   -98.3364 -98.3363 -58.7679 -58.7678 -58.7652 -58.7650 -58.7413 -58.7388
    -2.4759  -2.1689   0.3660   0.4297   0.7197   0.9564   1.4678   1.5068
     1.7264   1.8012   2.6585   2.6826   2.7779   2.8021   2.8446   2.8921
     2.9904   3.0342   3.1303   3.1318   3.2408   3.2518   3.2900   3.5517
     3.9248   3.9553   4.2846   4.4307   4.7059   4.7172

          k = 0.3333 0.1925 0.0000 ( 19580 PWs)   bands (ev):

   -98.3364 -98.3363 -58.7679 -58.7678 -58.7652 -58.7650 -58.7413 -58.7388
    -2.2869  -0.8910  -0.8606  -0.6592   0.6451   0.6949   0.9377   0.9501
     2.1406   2.1445   2.1672   2.2014   2.5895   2.8083   2.8303   2.9236
     2.9692   3.0624   3.1414   3.1549   3.3288   3.3507   3.3897   3.8368
     4.0336   4.2624   4.6841   4.9160   5.4840   5.5669

          k =-0.3333 0.1925 0.1536 ( 19563 PWs)   bands (ev):

   -98.3364 -98.3363 -58.7679 -58.7678 -58.7652 -58.7650 -58.7413 -58.7388
    -2.2110  -1.4529  -0.6030  -0.1093   0.1446   0.9584   0.9844   1.4085
     1.6432   1.6809   1.8533   2.6811   2.6947   2.7309   2.8504   2.9060
     2.9592   3.0174   3.1643   3.2229   3.2584   3.4521   3.4672   3.7700
     4.1770   4.2048   4.7727   5.1256   5.1484   5.2957

          k = 0.3333 0.1925 0.1536 ( 19563 PWs)   bands (ev):

   -98.3364 -98.3363 -58.7679 -58.7678 -58.7652 -58.7650 -58.7413 -58.7388
    -2.2104  -1.4533  -0.5983  -0.1143   0.1362   0.9175   1.0071   1.4347
     1.5819   1.7512   1.9012   2.5627   2.6994   2.8007   2.8474   2.9303
     2.9623   3.0114   3.1345   3.1588   3.3008   3.3733   3.5615   3.7694
     4.1410   4.2761   4.8044   4.9814   5.1765   5.3158

          k =-0.3333-0.1925 0.1536 ( 19563 PWs)   bands (ev):

   -98.3364 -98.3363 -58.7679 -58.7678 -58.7652 -58.7650 -58.7413 -58.7388
    -2.2105  -1.4516  -0.6046  -0.1130   0.1304   0.9657   1.0106   1.4059
     1.6214   1.7339   1.8318   2.5644   2.7167   2.7508   2.8590   2.8788
     2.9611   3.0742   3.1209   3.1700   3.3867   3.4300   3.5295   3.7171
     4.1921   4.2442   4.7110   5.0198   5.1696   5.2854

          k = 0.3333 0.1925-0.3071 ( 19586 PWs)   bands (ev):

   -98.3364 -98.3363 -58.7679 -58.7678 -58.7652 -58.7650 -58.7413 -58.7388
    -2.0696  -1.7623  -0.4637  -0.1653   0.7482   0.8057   1.0990   1.1277
     1.3171   1.5177   2.2269   2.2777   2.7025   2.7827   2.8250   2.9554
     2.9592   3.0511   3.1205   3.1844   3.3249   3.4552   3.9037   3.9381
     3.9579   4.1366   4.5388   4.7864   4.9030   5.1586

          k =-0.5000-0.2887 0.0000 ( 19568 PWs)   bands (ev):

   -98.3364 -98.3363 -58.7679 -58.7678 -58.7652 -58.7650 -58.7413 -58.7388
    -1.6434  -1.5784  -0.2673  -0.2387  -0.1629  -0.1623   0.7569   0.8262
     2.0288   2.0418   2.0579   2.1196   2.6912   2.8526   2.8978   2.9121
     2.9518   3.0739   3.1256   3.1787   3.3425   3.3702   3.7751   3.9880
     4.1303   4.3241   5.3133   5.4078   5.4850   5.5646

          k =-0.5000-0.2887 0.1536 ( 19582 PWs)   bands (ev):

   -98.3364 -98.3363 -58.7679 -58.7678 -58.7652 -58.7650 -58.7413 -58.7388
    -1.5671  -1.5046  -0.8254  -0.7346   0.4775   0.5542   0.8669   0.8847
     1.4819   1.6399   2.3289   2.4070   2.5194   2.6406   2.8618   2.8911
     2.9464   2.9984   3.1146   3.1616   3.3755   3.3966   3.5426   3.5460
     4.8049   4.9024   5.2052   5.2944   5.5887   5.6021

          k =-0.5000-0.2887-0.3071 ( 19588 PWs)   bands (ev):

   -98.3364 -98.3363 -58.7679 -58.7678 -58.7652 -58.7650 -58.7413 -58.7388
    -1.4235  -1.3758  -1.1342  -1.0324   0.9589   0.9733   1.0972   1.3129
     1.4121   1.4305   1.5070   1.5686   2.6724   2.7499   2.8812   2.9379
     2.9450   3.0530   3.1055   3.1844   3.3258   3.4538   3.9115   3.9419
     4.0601   4.1838   5.6050   5.7482   5.9450   6.0355

          k =-0.1667 0.2887 0.0000 ( 19567 PWs)   bands (ev):

   -98.3364 -98.3363 -58.7679 -58.7678 -58.7652 -58.7650 -58.7413 -58.7388
    -2.4232  -1.0130  -0.9959  -0.0520   0.0392   1.2470   1.2671   1.4108
     1.4397   2.1378   2.2839   2.6163   2.6626   2.7845   2.8942   2.9652
     2.9873   3.0088   3.0721   3.2059   3.2093   3.2563   3.6442   3.6676
     3.7452   4.4022   4.4186   4.7006   4.7079   5.2914

          k =-0.1667 0.2887 0.1536 ( 19568 PWs)   bands (ev):

   -98.3364 -98.3363 -58.7679 -58.7678 -58.7652 -58.7650 -58.7413 -58.7388
    -2.3464  -1.5871  -0.2582   0.0243   0.1132   0.7266   0.8692   1.6729
     1.9384   2.0877   2.2370   2.3306   2.6943   2.8434   2.8647   2.9033
     2.9524   3.0087   3.0490   3.1950   3.2071   3.3193   3.4840   3.6055
     4.1512   4.2351   4.6680   4.7520   4.8151   5.0536

          k =-0.3333-0.0000 0.1536 ( 19568 PWs)   bands (ev):

   -98.3364 -98.3363 -58.7679 -58.7678 -58.7652 -58.7650 -58.7413 -58.7388
    -2.3462  -1.5861  -0.2638  -0.0070   0.1533   0.6775   0.9275   1.6640
     1.9081   2.1543   2.2273   2.3418   2.6932   2.7681   2.7884   2.9125
     2.9389   2.9823   3.1135   3.1769   3.2551   3.3855   3.4790   3.6170
     4.0561   4.3904   4.6620   4.7226   4.8062   5.0126

          k =-0.1667 0.2887-0.3071 ( 19594 PWs)   bands (ev):

   -98.3364 -98.3363 -58.7679 -58.7678 -58.7652 -58.7650 -58.7413 -58.7388
    -2.2047  -1.8985   0.1613   0.2061   0.4192   0.5733   0.6584   0.7159
     2.3233   2.3878   2.4462   2.4640   2.6762   2.7342   2.7697   2.8524
     2.9081   2.9717   3.0511   3.2074   3.3615   3.4198   3.4668   3.5453
     3.5578   3.6293   5.0421   5.0964   5.3013   5.3675

          k =-0.3333 0.3849 0.0000 ( 19591 PWs)   bands (ev):

   -98.3364 -98.3363 -58.7679 -58.7678 -58.7652 -58.7650 -58.7413 -58.7388
    -1.8841  -1.0719  -0.4928  -0.4715  -0.2580   0.3221   0.3481   1.0890
     1.1174   2.0083   2.6428   2.7305   2.8266   2.8484   2.8802   2.9212
     2.9938   3.0661   3.1644   3.2113   3.5367   3.7255   3.8068   3.9055
     3.9728   4.3704   4.7252   4.9626   5.1346   5.2690

          k = 0.5000 0.0962 0.0000 ( 19591 PWs)   bands (ev):

   -98.3364 -98.3363 -58.7679 -58.7678 -58.7652 -58.7650 -58.7413 -58.7388
    -1.8818  -1.0792  -0.4895  -0.4708  -0.2458   0.3050   0.3306   1.1046
     1.1321   2.0204   2.6604   2.7532   2.7940   2.8231   2.9012   2.9326
     2.9607   3.0483   3.1307   3.2108   3.5510   3.6985   3.8251   3.9467
     4.0581   4.3549   4.6136   4.9597   5.2002   5.2730

          k =-0.3333 0.3849 0.1536 ( 19585 PWs)   bands (ev):

   -98.3364 -98.3363 -58.7679 -58.7678 -58.7652 -58.7650 -58.7413 -58.7388
    -1.8080  -1.0592  -0.9946  -0.2884  -0.1348   0.2737   0.5452   1.0471
     1.7904   2.0549   2.1619   2.6268   2.6435   2.7793   2.8695   2.9548
     2.9868   3.0468   3.1508   3.1770   3.2465   3.4887   3.5511   3.8542
     4.1148   4.2669   4.9398   5.0912   5.2339   5.8049

          k = 0.5000 0.0962 0.1536 ( 19585 PWs)   bands (ev):

   -98.3364 -98.3363 -58.7679 -58.7678 -58.7652 -58.7650 -58.7413 -58.7388
    -1.8056  -1.0793  -0.9743  -0.2600  -0.1844   0.2736   0.5644   1.0467
     1.8074   2.0821   2.1382   2.6022   2.6815   2.7406   2.8758   2.9277
     2.9634   3.0387   3.0996   3.1947   3.3188   3.4926   3.5839   3.8665
     4.1024   4.2685   4.9381   5.0693   5.2855   5.6401

          k =-0.5000-0.0962 0.1536 ( 19585 PWs)   bands (ev):

   -98.3364 -98.3363 -58.7679 -58.7678 -58.7652 -58.7650 -58.7413 -58.7388
    -1.8061  -1.0610  -0.9913  -0.2977  -0.1548   0.2900   0.5683   1.0377
     1.7885   2.0770   2.2050   2.5179   2.6708   2.7364   2.8347   2.9340
     2.9525   3.0783   3.1190   3.2144   3.3542   3.5078   3.5755   3.8420
     4.1189   4.3114   4.8014   5.1011   5.3984   5.6359

          k = 0.3333-0.3849 0.1536 ( 19585 PWs)   bands (ev):

   -98.3364 -98.3363 -58.7679 -58.7678 -58.7652 -58.7650 -58.7413 -58.7388
    -1.8078  -1.0829  -0.9661  -0.2525  -0.1927   0.2762   0.5578   1.0727
     1.7686   2.0474   2.1536   2.5333   2.7603   2.8185   2.8485   2.8834
     2.9556   3.0251   3.1705   3.2275   3.3058   3.4762   3.5965   3.8216
     4.0847   4.2890   4.8268   5.0978   5.3968   5.6924

          k = 0.5000-0.0962-0.1536 ( 19585 PWs)   bands (ev):

   -98.3364 -98.3363 -58.7679 -58.7678 -58.7652 -58.7650 -58.7413 -58.7388
    -1.8075  -1.0567  -0.9969  -0.2461  -0.2009   0.2847   0.5646   1.0576
     1.7743   2.0676   2.1540   2.5302   2.7271   2.7888   2.8366   2.9236
     2.9659   2.9866   3.1729   3.2426   3.3781   3.4541   3.5322   3.8478
     4.1139   4.2952   4.9173   5.0674   5.2574   5.6796

          k =-0.3333 0.3849-0.3071 ( 19588 PWs)   bands (ev):

   -98.3364 -98.3363 -58.7679 -58.7678 -58.7652 -58.7650 -58.7413 -58.7388
    -1.6665  -1.3685  -0.8595  -0.5420  -0.0604   0.2616   1.1534   1.1603
     1.8881   1.9179   2.1921   2.3219   2.5599   2.5798   2.8680   2.9034
     2.9544   3.0047   3.1797   3.2245   3.2428   3.3502   3.4570   3.5062
     3.8982   4.4121   5.0646   5.2719   5.8163   6.0278

          k = 0.5000 0.0962-0.3071 ( 19588 PWs)   bands (ev):

   -98.3364 -98.3363 -58.7679 -58.7678 -58.7652 -58.7650 -58.7413 -58.7388
    -1.6661  -1.3625  -0.8600  -0.5627  -0.0617   0.2774   1.1517   1.1805
     1.8784   1.9004   2.2357   2.3786   2.4816   2.5095   2.8543   2.9445
     2.9521   2.9965   3.1001   3.2278   3.3416   3.4025   3.4554   3.5002
     3.8930   4.4136   5.0702   5.2775   5.7999   5.9542

 ------ SPIN DOWN ----------


          k = 0.0000 0.0000 0.0000 ( 19579 PWs)   bands (ev):

   -98.3366 -98.3365 -58.7681 -58.7680 -58.7654 -58.7653 -58.7415 -58.7390
    -2.8322  -1.4122  -1.3944   1.7288   1.7766   1.7808   1.9216   1.9769
     1.9994   2.3861   2.4381   2.5861   2.6479   2.6669   2.7472   2.8200
     2.8259   2.9342   2.9363   3.0049   3.0163   3.2925   3.3088   3.3584
     3.3950   3.5920   3.7300   3.9418   4.0276   4.1673

          k = 0.0000 0.0000 0.1536 ( 19567 PWs)   bands (ev):

   -98.3366 -98.3365 -58.7681 -58.7680 -58.7654 -58.7653 -58.7415 -58.7390
    -2.7549  -1.9912  -0.6428   1.3158   1.8044   1.8398   1.8518   2.0013
     2.0045   2.0502   2.3988   2.4173   2.4703   2.5950   2.6592   2.7132
     2.8789   3.0004   3.0715   3.1151   3.1447   3.1728   3.1806   3.3210
     3.4289   3.6112   4.2342   4.3251   4.3904   4.5225

          k = 0.0000 0.0000-0.3071 ( 19464 PWs)   bands (ev):

   -98.3366 -98.3365 -58.7681 -58.7680 -58.7654 -58.7653 -58.7415 -58.7390
    -2.6118  -2.3053   0.2394   0.3084   1.9472   1.9784   2.0071   2.0085
     2.0693   2.0722   2.1613   2.1653   2.2578   2.4859   2.6069   2.6230
     2.8627   2.9235   3.0857   3.0927   3.1585   3.2084   3.2153   3.3933
     3.4078   3.6172   4.8337   4.9106   5.0214   5.1383

          k = 0.0000 0.1925 0.0000 ( 19574 PWs)   bands (ev):

   -98.3366 -98.3365 -58.7681 -58.7680 -58.7654 -58.7653 -58.7415 -58.7390
    -2.6955  -1.2786  -1.2606   0.5041   1.2615   1.2714   1.8008   1.8148
     2.2766   2.3630   2.3915   2.4259   2.4761   2.6136   2.8449   2.8680
     2.9615   2.9858   3.0133   3.1052   3.1617   3.2165   3.2568   3.3682
     3.4377   3.6916   3.9554   4.5536   4.5809   4.6859

          k = 0.0000 0.1925 0.1536 ( 19560 PWs)   bands (ev):

   -98.3366 -98.3365 -58.7681 -58.7680 -58.7654 -58.7653 -58.7415 -58.7390
    -2.6184  -1.8560  -0.5109   0.5755   1.2052   1.3393   1.3882   1.4860
     1.9642   2.0229   2.4405   2.6283   2.6485   2.7752   2.8055   2.8740
     3.0082   3.0336   3.1052   3.1332   3.1620   3.2438   3.2945   3.5461
     3.6332   3.9116   4.2569   4.3218   4.5208   4.8013

          k = 0.0000 0.1925-0.3071 ( 19514 PWs)   bands (ev):

   -98.3366 -98.3365 -58.7681 -58.7680 -58.7654 -58.7653 -58.7415 -58.7390
    -2.4759  -2.1691   0.3645   0.4304   0.7204   0.9749   1.4808   1.4914
     1.7240   1.7650   2.6759   2.7268   2.7760   2.8102   2.8473   2.8595
     2.9171   3.0160   3.0711   3.1298   3.2171   3.3359   3.4970   3.5600
     3.7983   3.9092   4.3097   4.5285   4.6587   4.6825

          k = 0.0000 0.3849 0.0000 ( 19580 PWs)   bands (ev):

   -98.3366 -98.3365 -58.7681 -58.7680 -58.7654 -58.7653 -58.7415 -58.7390
    -2.2875  -0.8863  -0.8684  -0.6542   0.6686   0.6893   0.9379   0.9425
     2.0102   2.0248   2.3058   2.3426   2.5961   2.7182   2.8472   2.9300
     2.9861   3.0858   3.1562   3.1648   3.2809   3.3519   3.4036   3.7690
     4.1216   4.2009   4.6991   4.9116   5.4965   5.5572

          k = 0.0000 0.3849 0.1536 ( 19563 PWs)   bands (ev):

   -98.3366 -98.3365 -58.7681 -58.7680 -58.7654 -58.7653 -58.7415 -58.7390
    -2.2109  -1.4545  -0.5932  -0.1192   0.1409   0.9587   0.9850   1.4367
     1.6191   1.6788   1.8549   2.6466   2.6566   2.7670   2.8656   2.9193
     3.0009   3.0189   3.1593   3.2242   3.2537   3.4390   3.4827   3.7398
     4.1907   4.1926   4.7547   5.1333   5.1828   5.2768

          k = 0.0000 0.3849-0.3071 ( 19586 PWs)   bands (ev):

   -98.3366 -98.3365 -58.7681 -58.7680 -58.7654 -58.7653 -58.7415 -58.7390
    -2.0696  -1.7640  -0.4630  -0.1533   0.7513   0.8033   1.1013   1.1116
     1.3917   1.4076   2.2237   2.2845   2.7963   2.8083   2.8591   2.9081
     2.9705   2.9837   3.1856   3.2508   3.2796   3.3413   3.8913   3.9120
     4.0177   4.0358   4.7383   4.7659   4.9614   4.9788

          k = 0.0000-0.5774 0.0000 ( 19568 PWs)   bands (ev):

   -98.3366 -98.3365 -58.7681 -58.7680 -58.7654 -58.7653 -58.7415 -58.7390
    -1.6709  -1.5477  -0.2996  -0.2826  -0.1313  -0.1039   0.7880   0.7892
     1.8922   1.9025   2.2436   2.2639   2.6828   2.7495   2.8402   2.9437
     2.9793   3.0877   3.1556   3.1718   3.3702   3.3805   3.8221   3.9435
     3.9855   4.4675   5.2913   5.3306   5.5349   5.5598

          k = 0.0000-0.5774 0.1536 ( 19582 PWs)   bands (ev):

   -98.3366 -98.3365 -58.7681 -58.7680 -58.7654 -58.7653 -58.7415 -58.7390
    -1.5927  -1.4760  -0.8671  -0.6861   0.4466   0.5898   0.8543   0.8922
     1.5273   1.5505   2.2641   2.4189   2.6229   2.6506   2.8461   2.8910
     2.9819   3.0271   3.1600   3.2265   3.3197   3.3471   3.4476   3.5234
     4.8454   4.8525   5.1822   5.4052   5.5689   5.6282

          k = 0.0000-0.5774-0.3071 ( 19588 PWs)   bands (ev):

   -98.3366 -98.3365 -58.7681 -58.7680 -58.7654 -58.7653 -58.7415 -58.7390
    -1.4382  -1.3556  -1.1873  -0.9751   0.9453   0.9689   1.2121   1.2458
     1.2961   1.3918   1.5304   1.6304   2.7813   2.7968   2.8693   2.8958
     2.9852   3.0075   3.1852   3.2330   3.2605   3.2988   3.9015   3.9091
     4.1088   4.1535   5.6001   5.6162   5.8673   5.8736

          k = 0.1667 0.2887 0.0000 ( 19567 PWs)   bands (ev):

   -98.3366 -98.3365 -58.7681 -58.7680 -58.7654 -58.7653 -58.7415 -58.7390
    -2.4229  -1.0137  -0.9939  -0.0845   0.0727   1.2191   1.2331   1.4307
     1.4863   2.1700   2.2715   2.5728   2.7054   2.7827   2.8620   2.9453
     2.9576   2.9929   3.0785   3.1770   3.2310   3.3208   3.6310   3.7169
     3.7977   4.3711   4.4096   4.5033   4.8717   5.1808

          k = 0.1667 0.2887 0.1536 ( 19568 PWs)   bands (ev):

   -98.3366 -98.3365 -58.7681 -58.7680 -58.7654 -58.7653 -58.7415 -58.7390
    -2.3461  -1.5869  -0.2495  -0.0058   0.1358   0.6847   0.9059   1.7037
     1.8907   2.0882   2.2616   2.3356   2.7058   2.8150   2.8491   2.9200
     2.9720   3.0514   3.0787   3.1468   3.2008   3.2907   3.4946   3.6269
     4.0107   4.3281   4.6662   4.7291   4.8080   5.1157

          k = 0.1667 0.2887-0.3071 ( 19594 PWs)   bands (ev):

   -98.3366 -98.3365 -58.7681 -58.7680 -58.7654 -58.7653 -58.7415 -58.7390
    -2.2047  -1.8976   0.1510   0.2243   0.3646   0.5871   0.6697   0.7445
     2.3197   2.3646   2.4804   2.4978   2.5879   2.7360   2.7819   2.8809
     2.9316   2.9870   3.0741   3.1738   3.2849   3.3707   3.4474   3.4866
     3.6467   3.7346   4.9644   5.1532   5.2563   5.4388

          k = 0.1667 0.4811 0.0000 ( 19591 PWs)   bands (ev):

   -98.3366 -98.3365 -58.7681 -58.7680 -58.7654 -58.7653 -58.7415 -58.7390
    -1.8833  -1.0746  -0.4981  -0.4647  -0.2530   0.3147   0.3435   1.0915
     1.1249   2.0112   2.6646   2.7275   2.7739   2.8439   2.8814   2.9632
     2.9808   3.0447   3.1717   3.2319   3.4984   3.7205   3.8440   3.9098
     4.0328   4.3459   4.6222   4.9862   5.1344   5.3326

          k = 0.1667 0.4811 0.1536 ( 19585 PWs)   bands (ev):

   -98.3366 -98.3365 -58.7681 -58.7680 -58.7654 -58.7653 -58.7415 -58.7390
    -1.8069  -1.0829  -0.9679  -0.2920  -0.1383   0.2690   0.5518   1.0478
     1.7959   2.0633   2.1500   2.6121   2.6301   2.8071   2.8579   2.9722
     2.9883   3.0495   3.1398   3.1829   3.2750   3.4659   3.5413   3.8427
     4.1196   4.2892   4.8194   5.1237   5.4184   5.6322

          k = 0.1667 0.4811-0.3071 ( 19588 PWs)   bands (ev):

   -98.3366 -98.3365 -58.7681 -58.7680 -58.7654 -58.7653 -58.7415 -58.7390
    -1.6665  -1.3663  -0.8596  -0.5494  -0.0613   0.2686   1.1497   1.1726
     1.8684   1.9135   2.1907   2.3327   2.5430   2.6456   2.8427   2.8886
     2.9673   2.9806   3.1547   3.2102   3.2534   3.3513   3.4623   3.5294
     3.9063   4.4343   5.0613   5.2695   5.8166   5.9804

          k = 0.3333 0.5774 0.0000 ( 19563 PWs)   bands (ev):

   -98.3366 -98.3365 -58.7681 -58.7680 -58.7654 -58.7653 -58.7415 -58.7390
    -1.2806  -1.2425  -1.0949   0.0767   0.0898   0.1308   0.1507   0.3557
     0.3949   2.6452   2.7334   2.7731   2.8309   2.8718   2.9492   2.9774
     3.0120   3.1074   3.2102   3.6401   3.6695   3.7372   4.1342   4.1968
     4.2541   4.3049   4.5047   4.6903   4.7392   4.9723

          k = 0.3333 0.5774 0.1536 ( 19617 PWs)   bands (ev):

   -98.3366 -98.3365 -58.7681 -58.7680 -58.7654 -58.7653 -58.7415 -58.7390
    -1.2019  -1.1669  -1.0289  -0.4893  -0.4270  -0.1898   0.8131   0.8696
     1.1077   2.4902   2.5392   2.6031   2.7760   2.8652   2.8976   2.9519
     2.9665   3.0883   3.2051   3.3649   3.4375   3.5155   3.7134   3.7768
     3.8458   4.5108   4.5326   4.6409   5.4628   5.5847

          k = 0.3333 0.5774-0.3071 ( 19590 PWs)   bands (ev):

   -98.3366 -98.3365 -58.7681 -58.7680 -58.7654 -58.7653 -58.7415 -58.7390
    -1.0422  -1.0241  -0.9306  -0.8146  -0.7290  -0.4619   1.6128   1.6710
     1.7330   1.7351   1.8918   2.0805   2.8010   2.8204   2.8719   2.9491
     2.9512   3.0143   3.1655   3.2258   3.2590   3.3697   3.7360   3.7724
     3.8887   4.3912   4.4096   4.4237   6.5955   6.6816

          k = 0.1667 0.0962 0.0000 ( 19574 PWs)   bands (ev):

   -98.3366 -98.3365 -58.7681 -58.7680 -58.7654 -58.7653 -58.7415 -58.7390
    -2.6954  -1.2787  -1.2601   0.4975   1.2342   1.3123   1.7761   1.8293
     2.2745   2.3427   2.4155   2.4475   2.5042   2.7131   2.7434   2.7563
     2.9063   2.9889   3.0623   3.0680   3.1378   3.2677   3.2809   3.3587
     3.5925   3.6996   3.9430   4.4081   4.4610   4.6925

          k =-0.1667 0.0962 0.1536 ( 19560 PWs)   bands (ev):

   -98.3366 -98.3365 -58.7681 -58.7680 -58.7654 -58.7653 -58.7415 -58.7390
    -2.6184  -1.8559  -0.5124   0.5792   1.2141   1.3329   1.4125   1.4486
     1.9904   2.0215   2.4195   2.5961   2.6193   2.8333   2.8525   2.8910
     2.9452   3.0248   3.0556   3.1569   3.1817   3.2826   3.3582   3.4821
     3.5791   3.9169   4.2956   4.3373   4.4506   4.8608

          k = 0.1667 0.0962 0.1536 ( 19560 PWs)   bands (ev):

   -98.3366 -98.3365 -58.7681 -58.7680 -58.7654 -58.7653 -58.7415 -58.7390
    -2.6183  -1.8559  -0.5102   0.5695   1.2344   1.3353   1.3658   1.4429
     2.0446   2.0606   2.4256   2.5198   2.6855   2.7557   2.8112   2.9197
     2.9206   3.0664   3.0898   3.1279   3.2521   3.2688   3.3285   3.4257
     3.7338   3.8690   4.0506   4.4775   4.5526   4.8475

          k =-0.1667-0.0962 0.1536 ( 19560 PWs)   bands (ev):

   -98.3366 -98.3365 -58.7681 -58.7680 -58.7654 -58.7653 -58.7415 -58.7390
    -2.6183  -1.8557  -0.5127   0.5733   1.1779   1.3780   1.3941   1.4908
     1.9713   2.0085   2.4053   2.6349   2.7097   2.7766   2.8245   2.8992
     2.9343   2.9485   3.1192   3.1289   3.1722   3.2594   3.2739   3.4833
     3.8185   3.9426   4.0929   4.4373   4.4742   4.8332

          k = 0.1667 0.0962-0.3071 ( 19514 PWs)   bands (ev):

   -98.3366 -98.3365 -58.7681 -58.7680 -58.7654 -58.7653 -58.7415 -58.7390
    -2.4759  -2.1689   0.3661   0.4297   0.7197   0.9565   1.4679   1.5068
     1.7264   1.8012   2.6584   2.6825   2.7778   2.8020   2.8444   2.8921
     2.9902   3.0342   3.1302   3.1316   3.2408   3.2517   3.2900   3.5517
     3.9248   3.9553   4.2846   4.4307   4.7059   4.7172

          k = 0.3333 0.1925 0.0000 ( 19580 PWs)   bands (ev):

   -98.3366 -98.3365 -58.7681 -58.7680 -58.7654 -58.7653 -58.7415 -58.7390
    -2.2869  -0.8910  -0.8605  -0.6592   0.6451   0.6949   0.9377   0.9501
     2.1406   2.1445   2.1672   2.2014   2.5894   2.8083   2.8302   2.9234
     2.9690   3.0623   3.1413   3.1547   3.3286   3.3505   3.3896   3.8367
     4.0336   4.2624   4.6841   4.9160   5.4841   5.5670

          k =-0.3333 0.1925 0.1536 ( 19563 PWs)   bands (ev):

   -98.3366 -98.3365 -58.7681 -58.7680 -58.7654 -58.7653 -58.7415 -58.7390
    -2.2110  -1.4529  -0.6030  -0.1093   0.1446   0.9584   0.9844   1.4085
     1.6432   1.6809   1.8534   2.6811   2.6946   2.7308   2.8503   2.9058
     2.9591   3.0173   3.1641   3.2228   3.2582   3.4520   3.4672   3.7700
     4.1770   4.2048   4.7727   5.1256   5.1484   5.3225

          k = 0.3333 0.1925 0.1536 ( 19563 PWs)   bands (ev):

   -98.3366 -98.3365 -58.7681 -58.7680 -58.7654 -58.7653 -58.7415 -58.7390
    -2.2103  -1.4533  -0.5983  -0.1142   0.1362   0.9175   1.0071   1.4348
     1.5819   1.7513   1.9012   2.5627   2.6993   2.8006   2.8473   2.9302
     2.9621   3.0113   3.1343   3.1587   3.3007   3.3731   3.5615   3.7694
     4.1410   4.2761   4.8044   4.9814   5.1765   5.3159

          k =-0.3333-0.1925 0.1536 ( 19563 PWs)   bands (ev):

   -98.3366 -98.3365 -58.7681 -58.7680 -58.7654 -58.7653 -58.7415 -58.7390
    -2.2104  -1.4516  -0.6045  -0.1130   0.1305   0.9657   1.0107   1.4059
     1.6214   1.7339   1.8318   2.5643   2.7166   2.7507   2.8589   2.8786
     2.9609   3.0741   3.1207   3.1699   3.3865   3.4299   3.5294   3.7170
     4.1921   4.2442   4.7110   5.0198   5.1697   5.2854

          k = 0.3333 0.1925-0.3071 ( 19586 PWs)   bands (ev):

   -98.3366 -98.3365 -58.7681 -58.7680 -58.7654 -58.7653 -58.7415 -58.7390
    -2.0695  -1.7622  -0.4636  -0.1653   0.7483   0.8058   1.0990   1.1277
     1.3171   1.5177   2.2269   2.2777   2.7023   2.7825   2.8249   2.9553
     2.9590   3.0510   3.1204   3.1842   3.3248   3.4551   3.9037   3.9382
     3.9578   4.1366   4.5388   4.7864   4.9030   5.1586

          k =-0.5000-0.2887 0.0000 ( 19568 PWs)   bands (ev):

   -98.3366 -98.3365 -58.7681 -58.7680 -58.7654 -58.7653 -58.7415 -58.7390
    -1.6434  -1.5783  -0.2673  -0.2387  -0.1629  -0.1623   0.7569   0.8263
     2.0288   2.0418   2.0579   2.1196   2.6911   2.8524   2.8977   2.9120
     2.9516   3.0737   3.1255   3.1786   3.3423   3.3700   3.7751   3.9879
     4.1303   4.3241   5.3133   5.4078   5.4850   5.5647

          k =-0.5000-0.2887 0.1536 ( 19582 PWs)   bands (ev):

   -98.3366 -98.3365 -58.7681 -58.7680 -58.7654 -58.7653 -58.7415 -58.7390
    -1.5671  -1.5046  -0.8254  -0.7346   0.4776   0.5542   0.8669   0.8847
     1.4819   1.6400   2.3289   2.4069   2.5194   2.6406   2.8617   2.8909
     2.9463   2.9982   3.1144   3.1614   3.3754   3.3964   3.5425   3.5459
     4.8049   4.9024   5.2052   5.2944   5.5887   5.6021

          k =-0.5000-0.2887-0.3071 ( 19588 PWs)   bands (ev):

   -98.3366 -98.3365 -58.7681 -58.7680 -58.7654 -58.7653 -58.7415 -58.7390
    -1.4235  -1.3758  -1.1342  -1.0324   0.9589   0.9734   1.0972   1.3129
     1.4122   1.4306   1.5070   1.5686   2.6723   2.7498   2.8811   2.9377
     2.9448   3.0529   3.1053   3.1842   3.3257   3.4537   3.9115   3.9419
     4.0601   4.1838   5.6050   5.6121   5.7483   5.9451

          k =-0.1667 0.2887 0.0000 ( 19567 PWs)   bands (ev):

   -98.3366 -98.3365 -58.7681 -58.7680 -58.7654 -58.7653 -58.7415 -58.7390
    -2.4232  -1.0129  -0.9958  -0.0520   0.0392   1.2471   1.2671   1.4108
     1.4397   2.1378   2.2839   2.6163   2.6626   2.7843   2.8940   2.9651
     2.9872   3.0087   3.0720   3.2058   3.2091   3.2561   3.6442   3.6675
     3.7451   4.4022   4.4186   4.7006   4.7079   5.2915

          k =-0.1667 0.2887 0.1536 ( 19568 PWs)   bands (ev):

   -98.3366 -98.3365 -58.7681 -58.7680 -58.7654 -58.7653 -58.7415 -58.7390
    -2.3464  -1.5871  -0.2581   0.0244   0.1132   0.7266   0.8692   1.6730
     1.9384   2.0877   2.2370   2.3306   2.6942   2.8433   2.8645   2.9032
     2.9523   3.0085   3.0489   3.1948   3.2070   3.3192   3.4840   3.6054
     4.1512   4.2351   4.6680   4.7520   4.8151   5.0536

          k =-0.3333-0.0000 0.1536 ( 19568 PWs)   bands (ev):

   -98.3366 -98.3365 -58.7681 -58.7680 -58.7654 -58.7653 -58.7415 -58.7390
    -2.3462  -1.5861  -0.2638  -0.0069   0.1534   0.6775   0.9275   1.6641
     1.9082   2.1543   2.2273   2.3418   2.6932   2.7680   2.7883   2.9124
     2.9388   2.9822   3.1134   3.1768   3.2550   3.3854   3.4789   3.6169
     4.0561   4.3904   4.6620   4.7226   4.8063   5.0126

          k =-0.1667 0.2887-0.3071 ( 19594 PWs)   bands (ev):

   -98.3366 -98.3365 -58.7681 -58.7680 -58.7654 -58.7653 -58.7415 -58.7390
    -2.2047  -1.8985   0.1613   0.2062   0.4193   0.5733   0.6584   0.7159
     2.3232   2.3878   2.4461   2.4640   2.6761   2.7342   2.7697   2.8522
     2.9080   2.9715   3.0511   3.2072   3.3614   3.4197   3.4667   3.5452
     3.5577   3.6293   5.0421   5.0965   5.3014   5.3675

          k =-0.3333 0.3849 0.0000 ( 19591 PWs)   bands (ev):

   -98.3366 -98.3365 -58.7681 -58.7680 -58.7654 -58.7653 -58.7415 -58.7390
    -1.8841  -1.0719  -0.4928  -0.4715  -0.2580   0.3221   0.3482   1.0890
     1.1175   2.0083   2.6427   2.7304   2.8264   2.8482   2.8801   2.9211
     2.9937   3.0659   3.1642   3.2111   3.5367   3.7254   3.8068   3.9055
     3.9728   4.3704   4.7252   4.9627   5.1346   5.2690

          k = 0.5000 0.0962 0.0000 ( 19591 PWs)   bands (ev):

   -98.3366 -98.3365 -58.7681 -58.7680 -58.7654 -58.7653 -58.7415 -58.7390
    -1.8818  -1.0792  -0.4894  -0.4707  -0.2458   0.3051   0.3306   1.1047
     1.1322   2.0204   2.6603   2.7531   2.7939   2.8230   2.9010   2.9325
     2.9606   3.0482   3.1305   3.2107   3.5510   3.6984   3.8251   3.9467
     4.0581   4.3549   4.6136   4.9597   5.2003   5.2730

          k =-0.3333 0.3849 0.1536 ( 19585 PWs)   bands (ev):

   -98.3366 -98.3365 -58.7681 -58.7680 -58.7654 -58.7653 -58.7415 -58.7390
    -1.8080  -1.0592  -0.9945  -0.2884  -0.1348   0.2737   0.5452   1.0472
     1.7904   2.0549   2.1619   2.6268   2.6434   2.7792   2.8694   2.9547
     2.9866   3.0467   3.1506   3.1769   3.2464   3.4886   3.5510   3.8542
     4.1148   4.2668   4.9398   5.0912   5.2340   5.8050

          k = 0.5000 0.0962 0.1536 ( 19585 PWs)   bands (ev):

   -98.3366 -98.3365 -58.7681 -58.7680 -58.7654 -58.7653 -58.7415 -58.7390
    -1.8056  -1.0793  -0.9742  -0.2599  -0.1844   0.2736   0.5644   1.0468
     1.8075   2.0821   2.1382   2.6021   2.6814   2.7404   2.8756   2.9275
     2.9632   3.0386   3.0994   3.1946   3.3187   3.4925   3.5838   3.8664
     4.1024   4.2685   4.9381   5.0694   5.2855   5.6402

          k =-0.5000-0.0962 0.1536 ( 19585 PWs)   bands (ev):

   -98.3366 -98.3365 -58.7681 -58.7680 -58.7654 -58.7653 -58.7415 -58.7390
    -1.8061  -1.0610  -0.9913  -0.2976  -0.1548   0.2900   0.5683   1.0377
     1.7885   2.0770   2.2050   2.5179   2.6707   2.7363   2.8346   2.9338
     2.9524   3.0782   3.1189   3.2142   3.3541   3.5076   3.5754   3.8420
     4.1189   4.3114   4.8014   5.1011   5.3984   5.6360

          k = 0.3333-0.3849 0.1536 ( 19585 PWs)   bands (ev):

   -98.3366 -98.3365 -58.7681 -58.7680 -58.7654 -58.7653 -58.7415 -58.7390
    -1.8077  -1.0828  -0.9660  -0.2524  -0.1927   0.2762   0.5578   1.0727
     1.7686   2.0474   2.1536   2.5333   2.7602   2.8184   2.8483   2.8833
     2.9555   3.0249   3.1704   3.2273   3.3056   3.4761   3.5964   3.8216
     4.0847   4.2890   4.8268   5.0978   5.3968   5.6924

          k = 0.5000-0.0962-0.1536 ( 19585 PWs)   bands (ev):

   -98.3366 -98.3365 -58.7681 -58.7680 -58.7654 -58.7653 -58.7415 -58.7390
    -1.8075  -1.0567  -0.9968  -0.2461  -0.2009   0.2847   0.5647   1.0577
     1.7743   2.0676   2.1540   2.5302   2.7270   2.7887   2.8364   2.9235
     2.9657   2.9864   3.1727   3.2425   3.3780   3.4540   3.5321   3.8478
     4.1139   4.2952   4.9173   5.0674   5.2574   5.6796

          k =-0.3333 0.3849-0.3071 ( 19588 PWs)   bands (ev):

   -98.3366 -98.3365 -58.7681 -58.7680 -58.7654 -58.7653 -58.7415 -58.7390
    -1.6665  -1.3685  -0.8595  -0.5419  -0.0603   0.2617   1.1535   1.1603
     1.8881   1.9180   2.1921   2.3219   2.5599   2.5798   2.8678   2.9033
     2.9543   3.0046   3.1796   3.2244   3.2426   3.3501   3.4569   3.5061
     3.8982   4.4121   5.0646   5.2719   5.8163   6.0278

          k = 0.5000 0.0962-0.3071 ( 19588 PWs)   bands (ev):

   -98.3366 -98.3365 -58.7681 -58.7680 -58.7654 -58.7653 -58.7415 -58.7390
    -1.6661  -1.3624  -0.8600  -0.5627  -0.0617   0.2774   1.1517   1.1806
     1.8784   1.9005   2.2357   2.3786   2.4816   2.5095   2.8542   2.9444
     2.9519   2.9964   3.1000   3.2277   3.3415   3.4023   3.4553   3.5001
     3.8930   4.4136   5.0702   5.2775   5.7999   5.9542

     the Fermi energy is     3.8357 ev

!    total energy              =   -1157.39112060 Ry
     estimated scf accuracy    <          3.6E-10 Ry
     smearing contrib. (-TS)   =      -0.00017925 Ry
     internal energy E=F+TS    =   -1157.39094135 Ry

     The total energy is F=E-TS. E is the sum of the following terms:
     one-electron contribution =    -871.07487414 Ry
     hartree contribution      =     451.80835039 Ry
     xc contribution           =     -93.00188321 Ry
     ewald contribution        =    -206.71454722 Ry
     DFT-D3 Dispersion         =      -0.31417600 Ry
     one-center paw contrib.   =    -438.09381116 Ry

     total magnetization       =    -0.00 Bohr mag/cell
     absolute magnetization    =     0.00 Bohr mag/cell

     convergence has been achieved in  32 iterations

     Forces acting on atoms (cartesian axes, Ry/au):

     atom    1 type  1   force =     0.00093845    0.00054181    0.00094473
     atom    2 type  2   force =    -0.00735897    0.00405893   -0.01397136
     atom    3 type  2   force =    -0.00728956   -0.00420863    0.01404516
     atom    4 type  2   force =    -0.00771051    0.00255562    0.01272546
     atom    5 type  2   force =    -0.00194038   -0.00112028    0.00134695
     atom    6 type  2   force =    -0.00016435   -0.00840252   -0.01397136
     atom    7 type  2   force =    -0.00029330   -0.00016934   -0.00081959
     atom    8 type  2   force =    -0.00164202   -0.00795531    0.01272546
     atom    9 type  2   force =     0.00771051   -0.00255562   -0.01272546
     atom   10 type  2   force =     0.00728956    0.00420863   -0.01404516
     atom   11 type  2   force =     0.00735897   -0.00405893    0.01397136
     atom   12 type  1   force =    -0.00093845   -0.00054181   -0.00094473
     atom   13 type  2   force =     0.00164202    0.00795531   -0.01272546
     atom   14 type  2   force =     0.00029330    0.00016934    0.00081959
     atom   15 type  2   force =     0.00016435    0.00840252    0.01397136
     atom   16 type  2   force =     0.00194038    0.00112028   -0.00134695

     Total force =     0.050305     Total SCF correction =     0.000010


     Computing stress (Cartesian axis) and pressure

          total   stress  (Ry/bohr**3)                   (kbar)     P=      -62.44
  -0.00041531   0.00000690   0.00001812          -61.09        1.02        2.66
   0.00000690  -0.00042328   0.00001046            1.02      -62.27        1.54
   0.00001812   0.00001046  -0.00043474            2.66        1.54      -63.95


     BFGS Geometry Optimization
     Energy error            =      4.1E-02 Ry
     Gradient error          =      1.4E-02 Ry/Bohr
     Cell gradient error     =      6.4E+01 kbar

     number of scf cycles    =   1
     number of bfgs steps    =   0

     enthalpy           new  =   -1157.3911205984 Ry

     new trust radius        =       0.1086872329 bohr
     new conv_thr            =       0.0000000010 Ry

     new unit-cell volume =   2415.77136 a.u.^3 (   357.98038 Ang^3 )
     density =      2.12290 g/cm^3

CELL_PARAMETERS (angstrom)
   6.333550092   0.001104333   0.002898494
  -3.165818665   5.483358776  -0.000000000
   0.004719111   0.002724580  10.306750407

ATOMIC_POSITIONS (angstrom)
Ni               0.0014004089        1.8285947851        1.2893216770
Mg               1.5814598423        0.9174055172        3.8586833949
Mg              -0.0005461966        1.8274709119        6.4495513574
Mg               1.5836415627        0.9179843690        9.0260321097
Mg              -1.5830165727        4.5694037317        1.2895312902
Mg               0.0023170719        3.6525610280        3.8586833949
Mg              -1.5797949040        4.5712637630        6.4417729965
Mg               0.0039092324        3.6541610273        9.0260321097
Mg               3.1717183074        1.8275239321        1.2836167916
Mg               4.7559060667        0.9180373891        3.8600975439
Mg               3.1739000277        1.8281027839        6.4509655064
Ni               4.7539594612        0.9169135159        9.0203272243
Mg               1.5856319722        4.5747060498        1.2836167916
Mg               3.1693361086        3.6576033141        3.8678759048
Mg               1.5872241327        4.5763060492        6.4509655064
Mg               3.1725577774        3.6594633455        9.0201176111



     Writing config-only to output data dir ./outdir/mgni.save/ :
     XML data file
     NEW-OLD atomic charge density approx. for the potential
     New effective cutoffs (rho, wfc):  490.60   61.36
     Generating pointlists ...
     new r_m :   0.2030 (alat units)  2.4550 (a.u.) for type    1
     new r_m :   0.2030 (alat units)  2.4550 (a.u.) for type    2

     total cpu time spent up to now is      259.7 secs

     Self-consistent Calculation

     iteration #  1     ecut=    60.00 Ry     beta= 0.30
     Davidson diagonalization with overlap
     c_bands:  1 eigenvalues not converged
     ethr =  1.00E-06,  avg # of iterations =  8.0

     total cpu time spent up to now is      272.1 secs

     total energy              =   -1157.33939742 Ry
     estimated scf accuracy    <       0.18816136 Ry

     total magnetization       =    -0.00 Bohr mag/cell
     absolute magnetization    =     0.00 Bohr mag/cell

     iteration #  2     ecut=    60.00 Ry     beta= 0.30
     Davidson diagonalization with overlap
     ethr =  2.94E-04,  avg # of iterations =  4.1

     total cpu time spent up to now is      278.7 secs

     total energy              =   -1157.34429618 Ry
     estimated scf accuracy    <       2.09710006 Ry

     total magnetization       =     0.00 Bohr mag/cell
     absolute magnetization    =     0.00 Bohr mag/cell

     iteration #  3     ecut=    60.00 Ry     beta= 0.30
     Davidson diagonalization with overlap
     ethr =  2.94E-04,  avg # of iterations =  3.0

     total cpu time spent up to now is      284.6 secs

     total energy              =   -1157.41860415 Ry
     estimated scf accuracy    <       0.14392565 Ry

     total magnetization       =    -0.00 Bohr mag/cell
     absolute magnetization    =     0.00 Bohr mag/cell

     iteration #  4     ecut=    60.00 Ry     beta= 0.30
     Davidson diagonalization with overlap
     ethr =  2.25E-04,  avg # of iterations =  1.1

     total cpu time spent up to now is      288.9 secs

     total energy              =   -1157.42152384 Ry
     estimated scf accuracy    <       0.02400519 Ry

     total magnetization       =    -0.00 Bohr mag/cell
     absolute magnetization    =     0.00 Bohr mag/cell

     iteration #  5     ecut=    60.00 Ry     beta= 0.30
     Davidson diagonalization with overlap
     ethr =  3.75E-05,  avg # of iterations =  3.8

     total cpu time spent up to now is      296.6 secs

     total energy              =   -1157.42482372 Ry
     estimated scf accuracy    <       0.00014630 Ry

     total magnetization       =    -0.00 Bohr mag/cell
     absolute magnetization    =     0.00 Bohr mag/cell

     iteration #  6     ecut=    60.00 Ry     beta= 0.30
     Davidson diagonalization with overlap
     ethr =  2.29E-07,  avg # of iterations =  6.4

     total cpu time spent up to now is      306.2 secs

     total energy              =   -1157.42502886 Ry
     estimated scf accuracy    <       0.00215321 Ry

     total magnetization       =    -0.00 Bohr mag/cell
     absolute magnetization    =     0.00 Bohr mag/cell

     iteration #  7     ecut=    60.00 Ry     beta= 0.30
     Davidson diagonalization with overlap
     ethr =  2.29E-07,  avg # of iterations =  4.6

     total cpu time spent up to now is      313.8 secs

     total energy              =   -1157.42517930 Ry
     estimated scf accuracy    <       0.00039221 Ry

     total magnetization       =    -0.00 Bohr mag/cell
     absolute magnetization    =     0.00 Bohr mag/cell

     iteration #  8     ecut=    60.00 Ry     beta= 0.30
     Davidson diagonalization with overlap
     ethr =  2.29E-07,  avg # of iterations =  1.0

     total cpu time spent up to now is      317.7 secs

     total energy              =   -1157.42519684 Ry
     estimated scf accuracy    <       0.00002904 Ry

     total magnetization       =    -0.00 Bohr mag/cell
     absolute magnetization    =     0.00 Bohr mag/cell

     iteration #  9     ecut=    60.00 Ry     beta= 0.30
     Davidson diagonalization with overlap
     ethr =  4.54E-08,  avg # of iterations =  2.2

     total cpu time spent up to now is      322.9 secs

     total energy              =   -1157.42519024 Ry
     estimated scf accuracy    <       0.00028575 Ry

     total magnetization       =    -0.00 Bohr mag/cell
     absolute magnetization    =     0.00 Bohr mag/cell

     iteration # 10     ecut=    60.00 Ry     beta= 0.30
     Davidson diagonalization with overlap
     ethr =  4.54E-08,  avg # of iterations =  1.1

     total cpu time spent up to now is      327.1 secs

     total energy              =   -1157.42518823 Ry
     estimated scf accuracy    <       0.00007774 Ry

     total magnetization       =     0.00 Bohr mag/cell
     absolute magnetization    =     0.00 Bohr mag/cell

     iteration # 11     ecut=    60.00 Ry     beta= 0.30
     Davidson diagonalization with overlap
     ethr =  4.54E-08,  avg # of iterations =  1.6

     total cpu time spent up to now is      332.0 secs

     total energy              =   -1157.42519010 Ry
     estimated scf accuracy    <       0.00000432 Ry

     total magnetization       =     0.00 Bohr mag/cell
     absolute magnetization    =     0.00 Bohr mag/cell

     iteration # 12     ecut=    60.00 Ry     beta= 0.30
     Davidson diagonalization with overlap
     ethr =  6.75E-09,  avg # of iterations =  5.4

     total cpu time spent up to now is      340.4 secs

     total energy              =   -1157.42519132 Ry
     estimated scf accuracy    <       0.00000308 Ry

     total magnetization       =     0.00 Bohr mag/cell
     absolute magnetization    =     0.00 Bohr mag/cell

     iteration # 13     ecut=    60.00 Ry     beta= 0.30
     Davidson diagonalization with overlap
     ethr =  4.81E-09,  avg # of iterations =  1.9

     total cpu time spent up to now is      345.4 secs

     total energy              =   -1157.42519156 Ry
     estimated scf accuracy    <       0.00000008 Ry

     total magnetization       =     0.00 Bohr mag/cell
     absolute magnetization    =     0.00 Bohr mag/cell

     iteration # 14     ecut=    60.00 Ry     beta= 0.30
     Davidson diagonalization with overlap
     ethr =  1.31E-10,  avg # of iterations = 12.4

     total cpu time spent up to now is      362.1 secs

     total energy              =   -1157.42519188 Ry
     estimated scf accuracy    <       0.00000010 Ry

     total magnetization       =     0.00 Bohr mag/cell
     absolute magnetization    =     0.00 Bohr mag/cell

     iteration # 15     ecut=    60.00 Ry     beta= 0.30
     Davidson diagonalization with overlap
     ethr =  1.31E-10,  avg # of iterations =  1.0

     total cpu time spent up to now is      365.9 secs

     total energy              =   -1157.42519189 Ry
     estimated scf accuracy    <       0.00000002 Ry

     total magnetization       =     0.00 Bohr mag/cell
     absolute magnetization    =     0.00 Bohr mag/cell

     iteration # 16     ecut=    60.00 Ry     beta= 0.30
     Davidson diagonalization with overlap
     ethr =  2.86E-11,  avg # of iterations =  5.9
 
     Magnetic moment per site  (integrated on atomic sphere of radius R)
     atom   1 (R=0.203)  charge= 17.4365  magn=  0.0000
     atom   2 (R=0.203)  charge=  1.0297  magn= -0.0000
     atom   3 (R=0.203)  charge=  1.0330  magn= -0.0000
     atom   4 (R=0.203)  charge=  0.9870  magn= -0.0000
     atom   5 (R=0.203)  charge=  1.0090  magn= -0.0000
     atom   6 (R=0.203)  charge=  1.0297  magn= -0.0000
     atom   7 (R=0.203)  charge=  1.0535  magn= -0.0000
     atom   8 (R=0.203)  charge=  0.9870  magn= -0.0000
     atom   9 (R=0.203)  charge=  0.9870  magn= -0.0000
     atom  10 (R=0.203)  charge=  1.0330  magn= -0.0000
     atom  11 (R=0.203)  charge=  1.0297  magn= -0.0000
     atom  12 (R=0.203)  charge= 17.4365  magn=  0.0000
     atom  13 (R=0.203)  charge=  0.9870  magn= -0.0000
     atom  14 (R=0.203)  charge=  1.0535  magn= -0.0000
     atom  15 (R=0.203)  charge=  1.0297  magn= -0.0000
     atom  16 (R=0.203)  charge=  1.0090  magn= -0.0000

     total cpu time spent up to now is      375.9 secs

     End of self-consistent calculation

 ------ SPIN UP ------------


          k = 0.0000 0.0000 0.0000 ( 19579 PWs)   bands (ev):

   -98.1644 -98.1643 -58.5952 -58.5951 -58.5911 -58.5908 -58.5681 -58.5653
    -2.7492  -1.3046  -1.2835   1.9034   1.9462   1.9644   2.0814   2.1386
     2.1620   2.5748   2.6080   2.7460   2.8040   2.8459   2.9145   3.0059
     3.0074   3.1098   3.1197   3.1862   3.1894   3.4758   3.4979   3.5414
     3.5708   3.7825   3.9488   4.1694   4.2596   4.4072

          k =-0.0001-0.0000 0.1552 ( 19567 PWs)   bands (ev):

   -98.1644 -98.1643 -58.5952 -58.5951 -58.5911 -58.5908 -58.5681 -58.5653
    -2.6690  -1.8966  -0.5168   1.4790   1.9793   2.0216   2.0222   2.1673
     2.1710   2.2137   2.5845   2.5931   2.6477   2.7579   2.8287   2.8767
     3.0401   3.1722   3.2491   3.2912   3.3291   3.3537   3.3558   3.5102
     3.6183   3.8121   4.4672   4.5678   4.6298   4.7534

          k = 0.0001 0.0001-0.3105 ( 19464 PWs)   bands (ev):

   -98.1644 -98.1643 -58.5952 -58.5951 -58.5911 -58.5908 -58.5681 -58.5653
    -2.5169  -2.2235   0.3851   0.4522   2.1127   2.1439   2.1855   2.1997
[...]
     2.4060   2.4439   2.8372   2.8432   2.8924   2.9870   3.0583   3.1046
     3.2688   3.4161   3.5144   3.5456   3.6009   3.6146   3.6151   3.7834
     3.8933   4.1118   4.8025   4.9187   5.0341   5.0889

          k = 0.0002 0.0001-0.3171 ( 19464 PWs)   bands (ev):

   -97.9149 -97.9147 -58.3448 -58.3446 -58.3375 -58.3371 -58.3175 -58.3135
    -2.3621  -2.1028   0.6391   0.6982   2.3406   2.3718   2.4130   2.4593
     2.4716   2.4836   2.5830   2.6067   2.6657   2.8794   2.9867   3.0161
     3.2449   3.3169   3.5183   3.5187   3.5916   3.6488   3.6740   3.8618
     3.8739   4.1230   5.4386   5.4996   5.6178   5.6237

          k =-0.0000 0.1969-0.0001 ( 19574 PWs)   bands (ev):

   -97.9149 -97.9147 -58.3448 -58.3446 -58.3375 -58.3371 -58.3175 -58.3135
    -2.4783  -0.9863  -0.9639   0.8638   1.6471   1.6560   2.2071   2.2271
     2.6810   2.7527   2.8053   2.8380   2.9217   3.0587   3.2560   3.2999
     3.3816   3.4261   3.4424   3.5358   3.6033   3.6697   3.7114   3.8378
     3.9256   4.2562   4.5055   5.1249   5.1539   5.2677

          k =-0.0001 0.1969 0.1585 ( 19560 PWs)   bands (ev):

   -97.9149 -97.9147 -58.3448 -58.3446 -58.3375 -58.3371 -58.3175 -58.3135
    -2.3924  -1.6048  -0.1673   0.9432   1.5964   1.7329   1.7827   1.9244
     2.3586   2.4096   2.8650   3.0183   3.0401   3.1719   3.2210   3.2688
     3.4317   3.4619   3.5460   3.5864   3.6083   3.6970   3.7645   4.0233
     4.1228   4.4370   4.8345   4.9040   5.1779   5.3642

          k = 0.0001 0.1970-0.3172 ( 19514 PWs)   bands (ev):

   -97.9149 -97.9147 -58.3448 -58.3446 -58.3375 -58.3371 -58.3175 -58.3135
    -2.2198  -1.9599   0.7699   0.8243   1.1146   1.3264   1.8942   1.9059
     2.0946   2.1249   3.0573   3.1054   3.1733   3.2230   3.2414   3.2607
     3.3414   3.4382   3.5118   3.5924   3.6670   3.8068   3.9847   4.0490
     4.2865   4.4235   4.8987   5.0895   5.2603   5.2862

          k =-0.0001 0.3938-0.0001 ( 19580 PWs)   bands (ev):

   -97.9149 -97.9147 -58.3448 -58.3446 -58.3375 -58.3371 -58.3175 -58.3135
    -2.0506  -0.5742  -0.5525  -0.3469   1.0445   1.0710   1.3056   1.3075
     2.4031   2.4178   2.7383   2.7833   3.0080   3.1355   3.2287   3.3408
     3.3904   3.5125   3.5978   3.6024   3.7397   3.8165   3.8767   4.3856
     4.6413   4.7419   5.2596   5.5475   6.0793   6.1454

          k =-0.0001 0.3938 0.1585 ( 19563 PWs)   bands (ev):

   -97.9149 -97.9147 -58.3448 -58.3446 -58.3375 -58.3371 -58.3175 -58.3135
    -1.9655  -1.1832  -0.2745   0.2400   0.4786   1.3381   1.3617   1.8501
     2.0153   2.0682   2.2963   3.0516   3.0684   3.1595   3.2477   3.3353
     3.4139   3.4373   3.5945   3.6748   3.7068   3.9189   3.9676   4.2681
     4.7148   4.7204   5.4124   5.7130   5.7743   5.9015

          k = 0.0001 0.3939-0.3172 ( 19586 PWs)   bands (ev):

   -97.9149 -97.9147 -58.3448 -58.3446 -58.3375 -58.3371 -58.3175 -58.3135
    -1.7947  -1.5345  -0.1162   0.1474   1.1691   1.2099   1.5012   1.5123
     1.7541   1.7620   2.6480   2.7395   3.1863   3.1975   3.2413   3.3107
     3.3769   3.4015   3.6262   3.7047   3.7334   3.8088   4.3949   4.4111
     4.5506   4.5663   5.3537   5.3874   5.5274   5.5484

          k = 0.0001-0.5907 0.0002 ( 19568 PWs)   bands (ev):

   -97.9149 -97.9147 -58.3448 -58.3446 -58.3375 -58.3371 -58.3175 -58.3135
    -1.4024  -1.2785   0.0405   0.0640   0.2062   0.2341   1.1508   1.1520
     2.2825   2.2941   2.6810   2.7101   3.0669   3.1491   3.2200   3.3551
     3.3808   3.5132   3.5963   3.6102   3.8381   3.8439   4.3289   4.4781
     4.6509   5.1308   5.8583   5.8986   6.1003   6.1432

          k = 0.0000-0.5907 0.1587 ( 19582 PWs)   bands (ev):

   -97.9149 -97.9147 -58.3448 -58.3446 -58.3375 -58.3371 -58.3175 -58.3135
    -1.3168  -1.1967  -0.5619  -0.3939   0.8337   0.9762   1.2260   1.2610
     1.9098   1.9346   2.7102   2.8522   3.0445   3.0767   3.2256   3.2896
     3.3867   3.4500   3.5988   3.6831   3.7925   3.8126   3.9301   4.0143
     5.4074   5.4164   5.8550   6.0322   6.1333   6.2495

          k = 0.0002-0.5906-0.3170 ( 19588 PWs)   bands (ev):

   -97.9149 -97.9147 -58.3448 -58.3446 -58.3375 -58.3371 -58.3175 -58.3135
    -1.1367  -1.0460  -0.9179  -0.7250   1.3410   1.3659   1.5938   1.6090
     1.6974   1.8322   1.9481   2.0590   3.1802   3.1851   3.2480   3.2937
     3.3931   3.4261   3.6254   3.6854   3.7032   3.7579   4.4161   4.4355
     4.6597   4.7068   6.1708   6.1853   6.4782   6.4951

          k = 0.1704 0.2953-0.0002 ( 19567 PWs)   bands (ev):

   -97.9149 -97.9147 -58.3448 -58.3446 -58.3375 -58.3371 -58.3175 -58.3135
    -2.1926  -0.7090  -0.6850   0.2515   0.4100   1.6192   1.6333   1.8184
     1.8763   2.5777   2.6619   2.9976   3.1295   3.1936   3.2754   3.3448
     3.3705   3.4162   3.5256   3.6168   3.6809   3.7918   4.1096   4.2044
     4.4000   4.9460   4.9935   5.0320   5.4353   5.7750

          k = 0.1704 0.2953 0.1584 ( 19568 PWs)   bands (ev):

   -97.9149 -97.9147 -58.3448 -58.3446 -58.3375 -58.3371 -58.3175 -58.3135
    -2.1074  -1.3220   0.1041   0.3370   0.4845   1.0511   1.2572   2.1565
     2.3225   2.5087   2.6616   2.7325   3.1118   3.2005   3.2700   3.3329
     3.3791   3.4733   3.5171   3.5870   3.6468   3.7477   3.9600   4.1227
     4.5379   4.8974   5.2351   5.3889   5.4093   5.7183

          k = 0.1706 0.2954-0.3173 ( 19594 PWs)   bands (ev):

   -97.9149 -97.9147 -58.3448 -58.3446 -58.3375 -58.3371 -58.3175 -58.3135
    -1.9361  -1.6751   0.5208   0.5999   0.7003   0.9395   1.0665   1.1223
     2.7058   2.7740   2.8900   2.9284   2.9970   3.1406   3.2039   3.3058
     3.3429   3.4109   3.5099   3.6194   3.7492   3.8267   3.9292   3.9870
     4.1559   4.2502   5.5560   5.7719   5.8414   6.0407

          k = 0.1704 0.4922-0.0002 ( 19591 PWs)   bands (ev):

   -97.9149 -97.9147 -58.3448 -58.3446 -58.3375 -58.3371 -58.3175 -58.3135
    -1.6271  -0.7804  -0.1675  -0.1331   0.0699   0.6746   0.7035   1.4701
     1.5094   2.4108   3.0575   3.1099   3.1645   3.2486   3.2955   3.3658
     3.3990   3.4733   3.6138   3.6836   3.9869   4.2271   4.3533   4.4375
     4.6740   4.8856   5.2719   5.5477   5.7138   5.9588

          k = 0.1703 0.4922 0.1584 ( 19585 PWs)   bands (ev):

   -97.9149 -97.9147 -58.3448 -58.3446 -58.3375 -58.3371 -58.3175 -58.3135
    -1.5428  -0.7852  -0.6730   0.0386   0.1850   0.6425   0.8952   1.4527
     2.2110   2.4695   2.5993   3.0164   3.0452   3.1982   3.2528   3.3762
     3.4101   3.4716   3.5815   3.6264   3.7323   3.9644   4.0346   4.3543
     4.6727   4.8087   5.3829   5.7848   6.0280   6.2346

          k = 0.1706 0.4923-0.3173 ( 19588 PWs)   bands (ev):

   -97.9149 -97.9147 -58.3448 -58.3446 -58.3375 -58.3371 -58.3175 -58.3135
    -1.3733  -1.1161  -0.5301  -0.2657   0.2993   0.5769   1.5676   1.5997
     2.3047   2.3501   2.6182   2.7188   2.9712   3.0831   3.2255   3.2867
     3.3726   3.3900   3.5941   3.6543   3.7041   3.8290   3.9377   4.0229
     4.4308   4.9437   5.6089   5.8642   6.4590   6.6057

          k = 0.3409 0.5907-0.0003 ( 19563 PWs)   bands (ev):

   -97.9149 -97.9147 -58.3448 -58.3446 -58.3375 -58.3371 -58.3175 -58.3135
    -1.0002  -0.9418  -0.8149   0.4278   0.4473   0.4971   0.5246   0.6939
     0.7282   3.0160   3.1069   3.1574   3.2271   3.2813   3.3418   3.3866
     3.4392   3.5408   3.6541   4.1613   4.1891   4.2146   4.6725   4.7440
     4.7778   4.9601   5.1640   5.2285   5.2839   5.6135

          k = 0.3408 0.5906 0.1582 ( 19617 PWs)   bands (ev):

   -97.9149 -97.9147 -58.3448 -58.3446 -58.3375 -58.3371 -58.3175 -58.3135
    -0.9145  -0.8583  -0.7373  -0.1719  -0.0959   0.1003   1.2084   1.2808
     1.4909   2.9039   2.9686   3.0050   3.1569   3.2670   3.3128   3.3523
     3.3738   3.5194   3.6487   3.8680   3.9348   4.0123   4.2297   4.2982
     4.3544   5.0410   5.0626   5.1311   6.1368   6.2511

          k = 0.3411 0.5907-0.3175 ( 19590 PWs)   bands (ev):

   -97.9149 -97.9147 -58.3448 -58.3446 -58.3375 -58.3371 -58.3175 -58.3135
    -0.7296  -0.6890  -0.6080  -0.5325  -0.4354  -0.2136   2.0271   2.0960
     2.1879   2.1932   2.3240   2.5179   3.1774   3.2062   3.2634   3.3545
     3.3563   3.4376   3.6065   3.6755   3.7097   3.8320   4.2622   4.3027
     4.3857   4.8932   4.9273   4.9406   7.2069   7.2357

          k = 0.1705 0.0984-0.0001 ( 19574 PWs)   bands (ev):

   -97.9149 -97.9147 -58.3448 -58.3446 -58.3375 -58.3371 -58.3175 -58.3135
    -2.4783  -0.9864  -0.9636   0.8539   1.6101   1.7132   2.1815   2.2395
     2.6745   2.7785   2.8137   2.8734   2.9217   3.1498   3.1594   3.1891
     3.3101   3.4027   3.4972   3.5150   3.5833   3.7280   3.7384   3.8279
     4.0953   4.2600   4.4884   4.9665   5.0227   5.2736

          k =-0.1706 0.0984 0.1586 ( 19560 PWs)   bands (ev):

   -97.9149 -97.9147 -58.3448 -58.3446 -58.3375 -58.3371 -58.3175 -58.3135
    -2.3922  -1.6056  -0.1670   0.9461   1.6050   1.7228   1.7972   1.8967
     2.3879   2.4166   2.8382   2.9832   3.0177   3.2371   3.2540   3.2922
     3.3545   3.4488   3.4915   3.5967   3.6388   3.7470   3.8346   3.9657
     4.0682   4.4390   4.8670   4.9136   5.0978   5.4402

          k = 0.1704 0.0984 0.1585 ( 19560 PWs)   bands (ev):

   -97.9149 -97.9147 -58.3448 -58.3446 -58.3375 -58.3371 -58.3175 -58.3135
    -2.3925  -1.6043  -0.1675   0.9348   1.6205   1.7129   1.7716   1.8907
     2.4486   2.4583   2.8398   2.9154   3.0797   3.1394   3.2073   3.3287
     3.3413   3.5004   3.5226   3.5658   3.7074   3.7329   3.8023   3.9057
     4.2356   4.3908   4.5929   5.1400   5.1641   5.4178

          k =-0.1706-0.0985 0.1587 ( 19560 PWs)   bands (ev):

   -97.9149 -97.9147 -58.3448 -58.3446 -58.3375 -58.3371 -58.3175 -58.3135
    -2.3920  -1.6059  -0.1664   0.9354   1.5640   1.7856   1.7982   1.9160
     2.3698   2.3981   2.8251   3.0084   3.1201   3.1784   3.2242   3.3063
     3.3543   3.3642   3.5545   3.5695   3.6427   3.7215   3.7283   3.9643
     4.3252   4.4613   4.6513   5.0216   5.1260   5.4112

          k = 0.1706 0.0985-0.3172 ( 19514 PWs)   bands (ev):

   -97.9149 -97.9147 -58.3448 -58.3446 -58.3375 -58.3371 -58.3175 -58.3135
    -2.2198  -1.9598   0.7713   0.8243   1.1103   1.3045   1.8896   1.9264
     2.0704   2.1878   3.0378   3.0712   3.1685   3.1768   3.2527   3.3047
     3.4163   3.4734   3.5641   3.5792   3.7061   3.7184   3.7579   4.0467
     4.4423   4.4563   4.8601   4.9993   5.3104   5.3118

          k = 0.3410 0.1969-0.0002 ( 19580 PWs)   bands (ev):

   -97.9149 -97.9147 -58.3448 -58.3446 -58.3375 -58.3371 -58.3175 -58.3135
    -2.0501  -0.5772  -0.5463  -0.3548   1.0239   1.0657   1.2919   1.3391
     2.5544   2.5600   2.5864   2.6062   2.9929   3.2139   3.2526   3.3138
     3.3778   3.4930   3.5790   3.5963   3.7891   3.8189   3.8682   4.4308
     4.5755   4.8003   5.2489   5.5507   6.0727   6.1511

          k =-0.3411 0.1969 0.1587 ( 19563 PWs)   bands (ev):

   -97.9149 -97.9147 -58.3448 -58.3446 -58.3375 -58.3371 -58.3175 -58.3135
    -1.9651  -1.1838  -0.2829   0.2516   0.4846   1.3363   1.3601   1.8147
     2.0361   2.0699   2.3064   3.0926   3.0971   3.1354   3.2399   3.3112
     3.3584   3.4364   3.6036   3.6604   3.7159   3.9295   3.9549   4.3061
     4.7061   4.7344   5.4428   5.7103   5.7360   5.9185

          k = 0.3409 0.1968 0.1584 ( 19563 PWs)   bands (ev):

   -97.9149 -97.9147 -58.3448 -58.3446 -58.3375 -58.3371 -58.3175 -58.3135
    -1.9653  -1.1814  -0.2813   0.2432   0.4703   1.2860   1.4024   1.8478
     1.9818   2.1483   2.3462   2.9593   3.1066   3.1806   3.2571   3.3391
     3.3686   3.4282   3.5692   3.6026   3.7566   3.8438   4.0604   4.2967
     4.6673   4.8115   5.4813   5.5461   5.7886   5.9251

          k =-0.3410-0.1969 0.1588 ( 19563 PWs)   bands (ev):

   -97.9149 -97.9147 -58.3448 -58.3446 -58.3375 -58.3371 -58.3175 -58.3135
    -1.9643  -1.1837  -0.2874   0.2483   0.4720   1.3290   1.4064   1.8100
     2.0098   2.1301   2.2904   2.9503   3.1178   3.1741   3.2503   3.2619
     3.3671   3.5064   3.5555   3.6045   3.8546   3.9052   4.0276   4.2461
     4.7232   4.7814   5.3459   5.6343   5.7657   5.8665

          k = 0.3411 0.1969-0.3173 ( 19586 PWs)   bands (ev):

   -97.9149 -97.9147 -58.3448 -58.3446 -58.3375 -58.3371 -58.3175 -58.3135
    -1.7947  -1.5331  -0.1195   0.1344   1.1673   1.2104   1.5098   1.5333
     1.6550   1.8954   2.6501   2.7381   3.0771   3.1631   3.2167   3.3581
     3.3600   3.4782   3.5542   3.6254   3.7831   3.9377   4.4008   4.4564
     4.4833   4.6774   5.1322   5.3337   5.5271   5.7609

          k =-0.5114-0.2953 0.0003 ( 19568 PWs)   bands (ev):

   -97.9149 -97.9147 -58.3448 -58.3446 -58.3375 -58.3371 -58.3175 -58.3135
    -1.3607  -1.3251   0.0827   0.1143   0.1637   0.1661   1.1040   1.2109
     2.4475   2.4565   2.4686   2.5256   3.0699   3.2380   3.3043   3.3234
     3.3588   3.5097   3.5602   3.6267   3.8038   3.8395   4.2748   4.5387
     4.8028   4.9546   5.8825   6.0228   6.0440   6.1265

          k =-0.5115-0.2953 0.1589 ( 19582 PWs)   bands (ev):

   -97.9149 -97.9147 -58.3448 -58.3446 -58.3375 -58.3371 -58.3175 -58.3135
    -1.2764  -1.2419  -0.5107  -0.4539   0.8755   0.9272   1.2226   1.2761
     1.8661   2.0342   2.7975   2.8302   2.9127   3.0772   3.2506   3.2820
     3.3508   3.4157   3.5491   3.5978   3.8457   3.8688   4.0466   4.0478
     5.3574   5.4748   5.8418   5.9430   6.1519   6.2206

          k =-0.5113-0.2952-0.3168 ( 19588 PWs)   bands (ev):

   -97.9149 -97.9147 -58.3448 -58.3446 -58.3375 -58.3371 -58.3175 -58.3135
    -1.1060  -1.0822  -0.8581  -0.7926   1.3670   1.3798   1.4447   1.7283
     1.7867   1.8669   1.9370   1.9904   3.0486   3.1334   3.2746   3.3373
     3.3387   3.4798   3.5410   3.6239   3.7821   3.9325   4.4232   4.4789
     4.6136   4.7326   6.1694   6.1758   6.3861   6.4945

          k =-0.1705 0.2954-0.0000 ( 19567 PWs)   bands (ev):

   -97.9149 -97.9147 -58.3448 -58.3446 -58.3375 -58.3371 -58.3175 -58.3135
    -2.1928  -0.7086  -0.6862   0.2991   0.3622   1.6486   1.6806   1.7891
     1.8217   2.5364   2.6741   3.0689   3.0893   3.1807   3.2749   3.3960
     3.4046   3.4485   3.4953   3.6549   3.6572   3.7151   4.1083   4.1447
     4.3546   4.9783   5.0073   5.2366   5.2726   5.9056

          k =-0.1706 0.2953 0.1586 ( 19568 PWs)   bands (ev):

   -97.9149 -97.9147 -58.3448 -58.3446 -58.3375 -58.3371 -58.3175 -58.3135
    -2.1072  -1.3234   0.0984   0.3830   0.4453   1.1042   1.2116   2.1159
     2.3757   2.5004   2.6420   2.7277   3.1105   3.2410   3.2631   3.3182
     3.3605   3.4202   3.4900   3.6350   3.6508   3.7820   3.9442   4.0964
     4.7040   4.7774   5.3139   5.3371   5.4235   5.6604

          k =-0.3411 0.0000 0.1587 ( 19568 PWs)   bands (ev):

   -97.9149 -97.9147 -58.3448 -58.3446 -58.3375 -58.3371 -58.3175 -58.3135
    -2.1067  -1.3240   0.0958   0.3353   0.4986   1.0482   1.2803   2.1071
     2.3315   2.5818   2.6329   2.7436   3.1175   3.1520   3.1880   3.3095
     3.3517   3.3905   3.5583   3.6154   3.7088   3.8472   3.9528   4.1061
     4.5903   4.9553   5.3044   5.3349   5.3900   5.6209

          k =-0.1704 0.2955-0.3171 ( 19594 PWs)   bands (ev):

   -97.9149 -97.9147 -58.3448 -58.3446 -58.3375 -58.3371 -58.3175 -58.3135
    -1.9360  -1.6757   0.5460   0.5703   0.7643   0.8923   1.0665   1.1034
     2.7080   2.8155   2.8526   2.8608   3.0988   3.1851   3.1924   3.2386
     3.3069   3.3785   3.4999   3.6516   3.8355   3.8993   3.9466   4.0420
     4.0532   4.1356   5.6610   5.7015   5.8886   5.9455

          k =-0.3410 0.3939 0.0001 ( 19591 PWs)   bands (ev):

   -97.9149 -97.9147 -58.3448 -58.3446 -58.3375 -58.3371 -58.3175 -58.3135
    -1.6278  -0.7774  -0.1636  -0.1385   0.0656   0.6792   0.7102   1.4672
     1.5017   2.4068   3.0312   3.1249   3.2227   3.2391   3.2879   3.3420
     3.4053   3.4919   3.6047   3.6627   4.0307   4.2254   4.3074   4.4207
     4.6246   4.9144   5.3920   5.5226   5.7162   5.8982

          k = 0.5115 0.0984-0.0003 ( 19591 PWs)   bands (ev):

   -97.9149 -97.9147 -58.3448 -58.3446 -58.3375 -58.3371 -58.3175 -58.3135
    -1.6254  -0.7869  -0.1597  -0.1395   0.0796   0.6602   0.6920   1.4896
     1.5159   2.4241   3.0431   3.1382   3.1927   3.2340   3.3117   3.3254
     3.3798   3.4884   3.5673   3.6558   4.0453   4.2042   4.3316   4.4634
     4.6993   4.9148   5.2658   5.5227   5.7717   5.8766

          k =-0.3411 0.3938 0.1586 ( 19585 PWs)   bands (ev):

   -97.9149 -97.9147 -58.3448 -58.3446 -58.3375 -58.3371 -58.3175 -58.3135
    -1.5430  -0.7694  -0.6933   0.0457   0.1867   0.6495   0.8897   1.4466
     2.2047   2.4571   2.6157   3.0391   3.0587   3.1723   3.2541   3.3765
     3.3938   3.4692   3.5906   3.6228   3.6922   3.9872   4.0527   4.3747
     4.6445   4.7903   5.5229   5.7651   5.7944   6.4756

          k = 0.5114 0.0983 0.1583 ( 19585 PWs)   bands (ev):

   -97.9149 -97.9147 -58.3448 -58.3446 -58.3375 -58.3371 -58.3175 -58.3135
    -1.5414  -0.7798  -0.6826   0.0599   0.1490   0.6465   0.9117   1.4505
     2.2253   2.4885   2.5978   3.0020   3.0948   3.1340   3.2802   3.3249
     3.3679   3.4629   3.5357   3.6381   3.7810   3.9722   4.1012   4.3807
     4.6609   4.7798   5.5292   5.6873   5.9042   6.2663

          k =-0.5115-0.0984 0.1588 ( 19585 PWs)   bands (ev):

   -97.9149 -97.9147 -58.3448 -58.3446 -58.3375 -58.3371 -58.3175 -58.3135
    -1.5403  -0.7707  -0.6965   0.0331   0.1749   0.6675   0.9147   1.4342
     2.2021   2.4887   2.6691   2.9298   3.0698   3.1315   3.2184   3.3266
     3.3587   3.5136   3.5567   3.6582   3.8215   3.9909   4.0938   4.3613
     4.6672   4.8358   5.3597   5.7668   5.9950   6.2541

          k = 0.3410-0.3939 0.1585 ( 19585 PWs)   bands (ev):

   -97.9149 -97.9147 -58.3448 -58.3446 -58.3375 -58.3371 -58.3175 -58.3135
    -1.5431  -0.7861  -0.6707   0.0709   0.1379   0.6505   0.9053   1.4769
     2.1759   2.4527   2.6057   2.9447   3.1737   3.2223   3.2468   3.2724
     3.3663   3.4417   3.6101   3.6800   3.7690   3.9500   4.1070   4.3265
     4.6451   4.8086   5.3969   5.7763   5.9855   6.2710

          k = 0.5116-0.0985-0.1588 ( 19585 PWs)   bands (ev):

   -97.9149 -97.9147 -58.3448 -58.3446 -58.3375 -58.3371 -58.3175 -58.3135
    -1.5421  -0.7684  -0.6959   0.0771   0.1331   0.6614   0.9118   1.4568
     2.1829   2.4694   2.6125   2.9498   3.1283   3.1728   3.2420   3.3307
     3.3694   3.3974   3.6109   3.6918   3.8500   3.9324   4.0451   4.3669
     4.6558   4.8285   5.5025   5.7051   5.8546   6.3130

          k =-0.3409 0.3939-0.3171 ( 19588 PWs)   bands (ev):

   -97.9149 -97.9147 -58.3448 -58.3446 -58.3375 -58.3371 -58.3175 -58.3135
    -1.3732  -1.1180  -0.5297  -0.2580   0.2995   0.5698   1.5712   1.5866
     2.3351   2.3527   2.6152   2.7050   2.9906   3.0006   3.2481   3.3073
     3.3630   3.4176   3.6255   3.6659   3.6967   3.8281   3.9314   3.9989
     4.4127   4.9177   5.6212   5.8615   6.4656   6.6451

          k = 0.5116 0.0985-0.3174 ( 19588 PWs)   bands (ev):

   -97.9149 -97.9147 -58.3448 -58.3446 -58.3375 -58.3371 -58.3175 -58.3135
    -1.3725  -1.1123  -0.5338  -0.2798   0.3024   0.5861   1.5750   1.6035
     2.3099   2.3489   2.6726   2.7572   2.8902   2.9301   3.2432   3.3461
     3.3580   3.4152   3.5331   3.6726   3.8156   3.8884   3.9280   3.9901
     4.4076   4.9206   5.6209   5.8706   6.4573   6.5534

     the Fermi energy is     4.3622 ev

!    total energy              =   -1157.46382910 Ry
     estimated scf accuracy    <          3.0E-11 Ry
     smearing contrib. (-TS)   =      -0.00072447 Ry
     internal energy E=F+TS    =   -1157.46310463 Ry

     The total energy is F=E-TS. E is the sum of the following terms:
     one-electron contribution =    -865.03913869 Ry
     hartree contribution      =     450.01959462 Ry
     xc contribution           =     -93.36620957 Ry
     ewald contribution        =    -210.55229984 Ry
     DFT-D3 Dispersion         =      -0.33605822 Ry
     one-center paw contrib.   =    -438.18899293 Ry

     total magnetization       =    -0.00 Bohr mag/cell
     absolute magnetization    =     0.00 Bohr mag/cell

     convergence has been achieved in  11 iterations
